44
  This energy is -4.3865 and Call times are: 622
C	0.908416	-1.08116	-3.18097
C	0.231398	-1.28235	-1.88008
O	-0.533049	-2.22076	-1.70279
H	0.586698	-1.87541	-3.88916
H	2.0097	-1.13901	-3.05225
H	0.63745	-0.0909733	-3.60429
N	0.50079	-0.387887	-0.926279
C	-0.114334	-0.426891	0.377048
C	-0.177768	0.991051	0.912744
O	0.397968	1.90972	0.332835
H	1.09345	0.393736	-1.09857
H	-1.13307	-0.781224	0.280797
C	0.685861	-1.33342	1.33785
H	1.72809	-0.96425	1.44516
H	0.214595	-1.38272	2.34085
H	0.726108	-2.36386	0.92202
N	-0.891546	1.20382	2.03581
C	-1.01297	2.52089	2.61613
H	-1.35379	0.44852	2.48849
H	-1.63933	2.48964	3.53478
H	-1.48467	3.22625	1.89416
H	-0.010851	2.92438	2.88834
C	4.57788	-3.27543	0.841675
C	4.33167	-2.02041	0.0963818
O	3.51117	-1.97284	-0.809677
H	3.93489	-4.08152	0.426165
H	4.33209	-3.13729	1.91557
H	5.64187	-3.5772	0.74205
N	5.05173	-0.959055	0.467074
C	4.95444	0.319439	-0.192124
C	6.29017	1.02544	-0.0544376
O	7.16929	0.572954	0.676394
H	5.74504	-1.0238	1.1791
H	4.77931	0.163826	-1.24935
C	3.82463	1.1733	0.424061
H	4.00928	1.34209	1.5064
H	3.73052	2.15483	-0.0841315
H	2.85803	0.633822	0.319154
N	6.47682	2.15466	-0.765794
C	7.71746	2.89152	-0.702521
H	5.75516	2.50296	-1.35484
H	7.67562	3.78914	-1.35809
H	8.5697	2.25498	-1.03386
H	7.92234	3.22754	0.339718
