44
  This energy is -4.9667 and Call times are: 1251
C	2.35655	1.96206	-1.6461
C	1.98558	0.803242	-0.803098
O	2.79496	-0.077093	-0.545573
H	3.41367	1.85494	-1.97308
H	2.25285	2.90446	-1.06828
H	1.70524	2.00591	-2.54441
N	0.730241	0.777109	-0.349412
C	0.20999	-0.306577	0.44653
C	-1.28281	-0.404302	0.194457
O	-1.87094	0.462724	-0.449038
H	0.0713447	1.48014	-0.601348
H	0.654418	-1.23737	0.116785
C	0.491643	-0.0736299	1.94708
H	0.0269762	0.875922	2.28836
H	0.108074	-0.908039	2.5693
H	1.58936	0.00265312	2.10692
N	-1.93227	-1.47491	0.692484
C	-3.35206	-1.65548	0.498157
H	-1.43845	-2.16804	1.20705
H	-3.69889	-2.59498	0.982179
H	-3.59613	-1.7098	-0.587548
H	-3.92036	-0.803958	0.93757
C	10.466	1.76014	0.466166
C	9.07317	1.43048	0.843539
O	8.5963	1.81509	1.90235
H	10.9364	2.35373	1.27999
H	10.4777	2.3593	-0.468512
H	11.0522	0.82915	0.315548
N	8.37983	0.695896	-0.0294164
C	7.02792	0.259828	0.217029
C	6.80684	-1.04133	-0.531091
O	7.64336	-1.45856	-1.32974
H	8.79488	0.355827	-0.868429
H	6.90716	0.0496288	1.27242
C	6.01133	1.32795	-0.242223
H	6.12776	1.53629	-1.32716
H	4.96708	1.00984	-0.045093
H	6.19686	2.27364	0.312386
N	5.67021	-1.72083	-0.281354
C	5.37641	-2.97124	-0.941916
H	5.00724	-1.36925	0.371286
H	4.39668	-3.37435	-0.602993
H	6.16299	-3.72791	-0.718274
H	5.33534	-2.83209	-2.0465
