44
  This energy is -7.0692 and Call times are: 1650
C	-2.74215	1.02436	-1.88254
C	-1.29007	0.790344	-1.71574
O	-0.527192	0.839417	-2.67074
H	-2.96269	1.2144	-2.95545
H	-3.05813	1.90771	-1.28876
H	-3.31414	0.132303	-1.55063
N	-0.870393	0.523849	-0.476693
C	0.506532	0.232078	-0.164435
C	0.534021	-0.671116	1.05419
O	-0.490994	-0.895454	1.69507
H	-1.50909	0.446921	0.283577
H	0.949752	-0.31904	-0.984469
C	1.29799	1.53044	0.105911
H	0.849978	2.09096	0.953926
H	2.36299	1.31995	0.333959
H	1.25767	2.17939	-0.796081
N	1.71535	-1.22039	1.39886
C	1.83696	-2.09716	2.5402
H	2.53296	-1.03028	0.865531
H	2.88657	-2.44593	2.6581
H	1.18211	-2.99056	2.42073
H	1.53527	-1.57043	3.47438
C	5.90578	-1.71311	2.95769
C	6.00986	-0.51447	2.09538
O	6.42679	0.547889	2.53581
H	6.23653	-1.45481	3.98713
H	6.55392	-2.52454	2.56495
H	4.8538	-2.06656	2.9963
N	5.62391	-0.661421	0.825804
C	5.62683	0.424964	-0.121989
C	4.54306	0.15893	-1.14973
O	3.95483	-0.920325	-1.17971
H	5.24827	-1.52148	0.492546
H	5.3689	1.34471	0.388073
C	7.00416	0.554374	-0.808608
H	7.26451	-0.3853	-1.34085
H	7.02341	1.39623	-1.5307
H	7.7828	0.740763	-0.0370405
N	4.24688	1.14754	-2.0163
C	3.22619	0.987394	-3.02561
H	4.73092	2.01528	-1.97376
H	3.13125	1.91052	-3.63885
H	2.23855	0.775925	-2.55537
H	3.47409	0.13936	-3.70423
