 Entering Gaussian System, Link 0=g09
 Input=opt-gc.gjf
 Output=opt-gc.log
 Initial command:
 /usr/g09/l1.exe /scratch/litao/gaussian/Gau-22555.inp -scrdir=/scratch/litao/gaussian/
 Entering Link 1 = /usr/g09/l1.exe PID=     22556.
  
 Copyright (c) 1988,1990,1992,1993,1995,1998,2003,2009, Gaussian, Inc.
                  All Rights Reserved.
  
 This is part of the Gaussian(R) 09 program.  It is based on
 the Gaussian(R) 03 system (copyright 2003, Gaussian, Inc.),
 the Gaussian(R) 98 system (copyright 1998, Gaussian, Inc.),
 the Gaussian(R) 94 system (copyright 1995, Gaussian, Inc.),
 the Gaussian 92(TM) system (copyright 1992, Gaussian, Inc.),
 the Gaussian 90(TM) system (copyright 1990, Gaussian, Inc.),
 the Gaussian 88(TM) system (copyright 1988, Gaussian, Inc.),
 the Gaussian 86(TM) system (copyright 1986, Carnegie Mellon
 University), and the Gaussian 82(TM) system (copyright 1983,
 Carnegie Mellon University). Gaussian is a federally registered
 trademark of Gaussian, Inc.
  
 This software contains proprietary and confidential information,
 including trade secrets, belonging to Gaussian, Inc.
  
 This software is provided under written license and may be
 used, copied, transmitted, or stored only in accord with that
 written license.
  
 The following legend is applicable only to US Government
 contracts under FAR:
  
                    RESTRICTED RIGHTS LEGEND
  
 Use, reproduction and disclosure by the US Government is
 subject to restrictions as set forth in subparagraphs (a)
 and (c) of the Commercial Computer Software - Restricted
 Rights clause in FAR 52.227-19.
  
 Gaussian, Inc.
 340 Quinnipiac St., Bldg. 40, Wallingford CT 06492
  
  
 ---------------------------------------------------------------
 Warning -- This program may not be used in any manner that
 competes with the business of Gaussian, Inc. or will provide
 assistance to any competitor of Gaussian, Inc.  The licensee
 of this program is prohibited from giving any competitor of
 Gaussian, Inc. access to this program.  By using this program,
 the user acknowledges that Gaussian, Inc. is engaged in the
 business of creating and licensing software in the field of
 computational chemistry and represents and warrants to the
 licensee that it is not a competitor of Gaussian, Inc. and that
 it will not use this program in any manner prohibited above.
 ---------------------------------------------------------------
  

 Cite this work as:
 Gaussian 09, Revision A.01,
 M. J. Frisch, G. W. Trucks, H. B. Schlegel, G. E. Scuseria, 
 M. A. Robb, J. R. Cheeseman, G. Scalmani, V. Barone, B. Mennucci, 
 G. A. Petersson, H. Nakatsuji, M. Caricato, X. Li, H. P. Hratchian, 
 A. F. Izmaylov, J. Bloino, G. Zheng, J. L. Sonnenberg, M. Hada, 
 M. Ehara, K. Toyota, R. Fukuda, J. Hasegawa, M. Ishida, T. Nakajima, 
 Y. Honda, O. Kitao, H. Nakai, T. Vreven, J. A. Montgomery, Jr., 
 J. E. Peralta, F. Ogliaro, M. Bearpark, J. J. Heyd, E. Brothers, 
 K. N. Kudin, V. N. Staroverov, R. Kobayashi, J. Normand, 
 K. Raghavachari, A. Rendell, J. C. Burant, S. S. Iyengar, J. Tomasi, 
 M. Cossi, N. Rega, J. M. Millam, M. Klene, J. E. Knox, J. B. Cross, 
 V. Bakken, C. Adamo, J. Jaramillo, R. Gomperts, R. E. Stratmann, 
 O. Yazyev, A. J. Austin, R. Cammi, C. Pomelli, J. W. Ochterski, 
 R. L. Martin, K. Morokuma, V. G. Zakrzewski, G. A. Voth, 
 P. Salvador, J. J. Dannenberg, S. Dapprich, A. D. Daniels, 
 O. Farkas, J. B. Foresman, J. V. Ortiz, J. Cioslowski, 
 and D. J. Fox, Gaussian, Inc., Wallingford CT, 2009.
 
 ******************************************
 Gaussian 09:  EM64L-G09RevA.01  8-May-2009
                27-Apr-2015 
 ******************************************
 %nprocshared=1
 Will use up to    1 processors via shared memory.
 %mem=8GB
 %chk=opt-gc.chk
 -----------------
 # opt b3lyp/6-31g
 -----------------
 1/14=-1,18=20,19=15,26=3,38=1/1,3;
 2/9=110,12=2,17=6,18=5,40=1/2;
 3/5=1,6=6,11=2,16=1,25=1,30=1,71=1,74=-5/1,2,3;
 4//1;
 5/5=2,38=5/2;
 6/7=2,8=2,9=2,10=2,28=1/1;
 7//1,2,3,16;
 1/14=-1,18=20,19=15/3(2);
 2/9=110/2;
 99//99;
 2/9=110/2;
 3/5=1,6=6,11=2,16=1,25=1,30=1,71=1,74=-5/1,2,3;
 4/5=5,16=3/1;
 5/5=2,38=5/2;
 7//1,2,3,16;
 1/14=-1,18=20,19=15/3(-5);
 2/9=110/2;
 6/7=2,8=2,9=2,10=2,19=2,28=1/1;
 99/9=1/99;
 -------------------
 Title Card Required
 -------------------
 Symbolic Z-matrix:
 Charge =  0 Multiplicity = 1
 C                     0.2199   -1.12077  -0.43316 
 N                     0.81421  -2.28019  -0.98344 
 H                     1.80732  -2.27217  -1.25745 
 H                     0.26338  -3.14114  -1.11566 
 N                     0.96225   0.00611  -0.266 
 C                     0.41516   1.13324   0.26041 
 O                     1.10011   2.13053   0.40057 
 N                    -0.90673   1.14657   0.63303 
 C                    -1.67738   0.03744   0.47964 
 H                    -1.32812   2.01311   1.03796 
 C                    -1.12709  -1.12425  -0.05913 
 H                    -2.71869   0.05525   0.77559 
 H                    -1.73698  -2.01027  -0.18327 
 C                     5.28972   0.10098  -1.24404 
 O                     5.13128  -0.01473  -2.32729 
 N                     4.32897   0.60188  -0.43706 
 C                     4.50504   0.68847   0.90349 
 H                     3.44756   0.87311  -0.84486 
 N                     3.42726   1.07991   1.72973 
 H                     2.82955   1.8323    1.23717 
 H                     3.80694   1.47723   2.65989 
 N                     5.66736   0.33485   1.49453 
 C                     6.65706  -0.13949   0.71934 
 C                     6.48514  -0.28806  -0.64758 
 N                     7.59267  -0.87083  -1.14351 
 C                     8.44931  -1.09099  -0.12442 
 N                     7.86805  -0.64558   1.00799 
 H                     9.43719  -1.53037  -0.20785 
 H                     8.27415  -0.68763   1.92981 
 

 GradGradGradGradGradGradGradGradGradGradGradGradGradGradGradGradGradGrad
 Berny optimization.
 Initialization pass.
                           ----------------------------
                           !    Initial Parameters    !
                           ! (Angstroms and Degrees)  !
 --------------------------                            --------------------------
 ! Name  Definition              Value          Derivative Info.                !
 --------------------------------------------------------------------------------
 ! R1    R(1,2)                  1.4143         estimate D2E/DX2                !
 ! R2    R(1,5)                  1.3597         estimate D2E/DX2                !
 ! R3    R(1,11)                 1.398          estimate D2E/DX2                !
 ! R4    R(2,3)                  1.0302         estimate D2E/DX2                !
 ! R5    R(2,4)                  1.0306         estimate D2E/DX2                !
 ! R6    R(5,6)                  1.359          estimate D2E/DX2                !
 ! R7    R(6,7)                  1.2179         estimate D2E/DX2                !
 ! R8    R(6,8)                  1.3735         estimate D2E/DX2                !
 ! R9    R(7,20)                 1.9442         estimate D2E/DX2                !
 ! R10   R(8,9)                  1.3593         estimate D2E/DX2                !
 ! R11   R(8,10)                 1.0452         estimate D2E/DX2                !
 ! R12   R(9,11)                 1.3938         estimate D2E/DX2                !
 ! R13   R(9,12)                 1.0827         estimate D2E/DX2                !
 ! R14   R(11,13)                1.0828         estimate D2E/DX2                !
 ! R15   R(14,15)                1.1009         estimate D2E/DX2                !
 ! R16   R(14,16)                1.351          estimate D2E/DX2                !
 ! R17   R(14,24)                1.3915         estimate D2E/DX2                !
 ! R18   R(16,17)                1.3548         estimate D2E/DX2                !
 ! R19   R(16,18)                1.0083         estimate D2E/DX2                !
 ! R20   R(17,19)                1.4133         estimate D2E/DX2                !
 ! R21   R(17,22)                1.3511         estimate D2E/DX2                !
 ! R22   R(19,20)                1.0798         estimate D2E/DX2                !
 ! R23   R(19,21)                1.0804         estimate D2E/DX2                !
 ! R24   R(22,23)                1.3437         estimate D2E/DX2                !
 ! R25   R(23,24)                1.3857         estimate D2E/DX2                !
 ! R26   R(23,27)                1.3439         estimate D2E/DX2                !
 ! R27   R(24,25)                1.3462         estimate D2E/DX2                !
 ! R28   R(25,26)                1.3494         estimate D2E/DX2                !
 ! R29   R(26,27)                1.3486         estimate D2E/DX2                !
 ! R30   R(26,28)                1.0844         estimate D2E/DX2                !
 ! R31   R(27,29)                1.0082         estimate D2E/DX2                !
 ! A1    A(2,1,5)              119.8553         estimate D2E/DX2                !
 ! A2    A(2,1,11)             120.4609         estimate D2E/DX2                !
 ! A3    A(5,1,11)             119.6838         estimate D2E/DX2                !
 ! A4    A(1,2,3)              120.1433         estimate D2E/DX2                !
 ! A5    A(1,2,4)              120.6746         estimate D2E/DX2                !
 ! A6    A(3,2,4)              119.1821         estimate D2E/DX2                !
 ! A7    A(1,5,6)              121.0102         estimate D2E/DX2                !
 ! A8    A(5,6,7)              119.8217         estimate D2E/DX2                !
 ! A9    A(5,6,8)              120.0396         estimate D2E/DX2                !
 ! A10   A(7,6,8)              120.1388         estimate D2E/DX2                !
 ! A11   A(6,7,20)             115.099          estimate D2E/DX2                !
 ! A12   A(6,8,9)              120.473          estimate D2E/DX2                !
 ! A13   A(6,8,10)             120.0781         estimate D2E/DX2                !
 ! A14   A(9,8,10)             119.4489         estimate D2E/DX2                !
 ! A15   A(8,9,11)             119.9922         estimate D2E/DX2                !
 ! A16   A(8,9,12)             120.0675         estimate D2E/DX2                !
 ! A17   A(11,9,12)            119.9403         estimate D2E/DX2                !
 ! A18   A(1,11,9)             118.8013         estimate D2E/DX2                !
 ! A19   A(1,11,13)            120.9366         estimate D2E/DX2                !
 ! A20   A(9,11,13)            120.2621         estimate D2E/DX2                !
 ! A21   A(15,14,16)           121.627          estimate D2E/DX2                !
 ! A22   A(15,14,24)           121.068          estimate D2E/DX2                !
 ! A23   A(16,14,24)           117.2949         estimate D2E/DX2                !
 ! A24   A(14,16,17)           121.4872         estimate D2E/DX2                !
 ! A25   A(14,16,18)           118.6716         estimate D2E/DX2                !
 ! A26   A(17,16,18)           119.773          estimate D2E/DX2                !
 ! A27   A(16,17,19)           119.8044         estimate D2E/DX2                !
 ! A28   A(16,17,22)           121.8656         estimate D2E/DX2                !
 ! A29   A(19,17,22)           118.2159         estimate D2E/DX2                !
 ! A30   A(17,19,20)           110.3914         estimate D2E/DX2                !
 ! A31   A(17,19,21)           109.7052         estimate D2E/DX2                !
 ! A32   A(20,19,21)           109.3304         estimate D2E/DX2                !
 ! A33   A(7,20,19)            142.7098         estimate D2E/DX2                !
 ! A34   A(17,22,23)           118.2739         estimate D2E/DX2                !
 ! A35   A(22,23,24)           121.0361         estimate D2E/DX2                !
 ! A36   A(22,23,27)           132.2818         estimate D2E/DX2                !
 ! A37   A(24,23,27)           106.4577         estimate D2E/DX2                !
 ! A38   A(14,24,23)           119.965          estimate D2E/DX2                !
 ! A39   A(14,24,25)           132.0617         estimate D2E/DX2                !
 ! A40   A(23,24,25)           107.9241         estimate D2E/DX2                !
 ! A41   A(24,25,26)           108.3428         estimate D2E/DX2                !
 ! A42   A(25,26,27)           107.8579         estimate D2E/DX2                !
 ! A43   A(25,26,28)           125.8973         estimate D2E/DX2                !
 ! A44   A(27,26,28)           126.2346         estimate D2E/DX2                !
 ! A45   A(23,27,26)           109.4164         estimate D2E/DX2                !
 ! A46   A(23,27,29)           125.1051         estimate D2E/DX2                !
 ! A47   A(26,27,29)           125.4781         estimate D2E/DX2                !
 ! D1    D(5,1,2,3)             -0.0033         estimate D2E/DX2                !
 ! D2    D(5,1,2,4)            179.9977         estimate D2E/DX2                !
 ! D3    D(11,1,2,3)           179.9966         estimate D2E/DX2                !
 ! D4    D(11,1,2,4)            -0.0025         estimate D2E/DX2                !
 ! D5    D(2,1,5,6)            179.9998         estimate D2E/DX2                !
 ! D6    D(11,1,5,6)             0.0            estimate D2E/DX2                !
 ! D7    D(2,1,11,9)          -180.0            estimate D2E/DX2                !
 ! D8    D(2,1,11,13)           -0.0003         estimate D2E/DX2                !
 ! D9    D(5,1,11,9)            -0.0001         estimate D2E/DX2                !
 ! D10   D(5,1,11,13)          179.9996         estimate D2E/DX2                !
 ! D11   D(1,5,6,7)            179.9993         estimate D2E/DX2                !
 ! D12   D(1,5,6,8)              0.0002         estimate D2E/DX2                !
 ! D13   D(5,6,7,20)           -47.6164         estimate D2E/DX2                !
 ! D14   D(8,6,7,20)           132.3827         estimate D2E/DX2                !
 ! D15   D(5,6,8,9)             -0.0002         estimate D2E/DX2                !
 ! D16   D(5,6,8,10)           179.9994         estimate D2E/DX2                !
 ! D17   D(7,6,8,9)           -179.9994         estimate D2E/DX2                !
 ! D18   D(7,6,8,10)             0.0002         estimate D2E/DX2                !
 ! D19   D(6,7,20,19)           -7.2784         estimate D2E/DX2                !
 ! D20   D(6,8,9,11)             0.0001         estimate D2E/DX2                !
 ! D21   D(6,8,9,12)          -179.9996         estimate D2E/DX2                !
 ! D22   D(10,8,9,11)         -179.9995         estimate D2E/DX2                !
 ! D23   D(10,8,9,12)            0.0008         estimate D2E/DX2                !
 ! D24   D(8,9,11,1)             0.0            estimate D2E/DX2                !
 ! D25   D(8,9,11,13)         -179.9997         estimate D2E/DX2                !
 ! D26   D(12,9,11,1)          179.9998         estimate D2E/DX2                !
 ! D27   D(12,9,11,13)           0.0001         estimate D2E/DX2                !
 ! D28   D(15,14,16,17)        177.0562         estimate D2E/DX2                !
 ! D29   D(15,14,16,18)          0.0654         estimate D2E/DX2                !
 ! D30   D(24,14,16,17)         -1.7994         estimate D2E/DX2                !
 ! D31   D(24,14,16,18)       -178.7902         estimate D2E/DX2                !
 ! D32   D(15,14,24,23)       -179.6119         estimate D2E/DX2                !
 ! D33   D(15,14,24,25)         -2.5007         estimate D2E/DX2                !
 ! D34   D(16,14,24,23)         -0.7495         estimate D2E/DX2                !
 ! D35   D(16,14,24,25)        176.3617         estimate D2E/DX2                !
 ! D36   D(14,16,17,19)       -173.0923         estimate D2E/DX2                !
 ! D37   D(14,16,17,22)          2.9536         estimate D2E/DX2                !
 ! D38   D(18,16,17,19)          3.8659         estimate D2E/DX2                !
 ! D39   D(18,16,17,22)        179.9118         estimate D2E/DX2                !
 ! D40   D(16,17,19,20)        -36.7221         estimate D2E/DX2                !
 ! D41   D(16,17,19,21)       -157.2692         estimate D2E/DX2                !
 ! D42   D(22,17,19,20)        147.0887         estimate D2E/DX2                !
 ! D43   D(22,17,19,21)         26.5416         estimate D2E/DX2                !
 ! D44   D(16,17,22,23)         -1.3595         estimate D2E/DX2                !
 ! D45   D(19,17,22,23)        174.7468         estimate D2E/DX2                !
 ! D46   D(17,19,20,7)         109.7687         estimate D2E/DX2                !
 ! D47   D(21,19,20,7)        -129.4601         estimate D2E/DX2                !
 ! D48   D(17,22,23,24)         -1.233          estimate D2E/DX2                !
 ! D49   D(17,22,23,27)       -174.9942         estimate D2E/DX2                !
 ! D50   D(22,23,24,14)          2.2973         estimate D2E/DX2                !
 ! D51   D(22,23,24,25)       -175.4489         estimate D2E/DX2                !
 ! D52   D(27,23,24,14)        177.4882         estimate D2E/DX2                !
 ! D53   D(27,23,24,25)         -0.258          estimate D2E/DX2                !
 ! D54   D(22,23,27,26)        174.784          estimate D2E/DX2                !
 ! D55   D(22,23,27,29)         -4.9793         estimate D2E/DX2                !
 ! D56   D(24,23,27,26)          0.3558         estimate D2E/DX2                !
 ! D57   D(24,23,27,29)       -179.4075         estimate D2E/DX2                !
 ! D58   D(14,24,25,26)       -177.3044         estimate D2E/DX2                !
 ! D59   D(23,24,25,26)          0.0655         estimate D2E/DX2                !
 ! D60   D(24,25,26,27)          0.1531         estimate D2E/DX2                !
 ! D61   D(24,25,26,28)       -178.7409         estimate D2E/DX2                !
 ! D62   D(25,26,27,23)         -0.3214         estimate D2E/DX2                !
 ! D63   D(25,26,27,29)        179.4407         estimate D2E/DX2                !
 ! D64   D(28,26,27,23)        178.5678         estimate D2E/DX2                !
 ! D65   D(28,26,27,29)         -1.6701         estimate D2E/DX2                !
 --------------------------------------------------------------------------------
 Trust Radius=3.00D-01 FncErr=1.00D-07 GrdErr=1.00D-06
 Number of steps in this run= 153 maximum allowed number of steps= 174.
 GradGradGradGradGradGradGradGradGradGradGradGradGradGradGradGradGradGrad

                          Input orientation:                          
 ---------------------------------------------------------------------
 Center     Atomic      Atomic             Coordinates (Angstroms)
 Number     Number       Type             X           Y           Z
 ---------------------------------------------------------------------
      1          6           0        0.219904   -1.120770   -0.433161
      2          7           0        0.814212   -2.280190   -0.983435
      3          1           0        1.807320   -2.272170   -1.257450
      4          1           0        0.263383   -3.141140   -1.115660
      5          7           0        0.962252    0.006113   -0.265997
      6          6           0        0.415156    1.133240    0.260407
      7          8           0        1.100110    2.130530    0.400568
      8          7           0       -0.906734    1.146570    0.633031
      9          6           0       -1.677380    0.037440    0.479639
     10          1           0       -1.328120    2.013110    1.037960
     11          6           0       -1.127090   -1.124250   -0.059127
     12          1           0       -2.718690    0.055247    0.775589
     13          1           0       -1.736980   -2.010270   -0.183266
     14          6           0        5.289720    0.100980   -1.244040
     15          8           0        5.131280   -0.014735   -2.327290
     16          7           0        4.328970    0.601875   -0.437060
     17          6           0        4.505040    0.688465    0.903489
     18          1           0        3.447560    0.873111   -0.844856
     19          7           0        3.427260    1.079910    1.729730
     20          1           0        2.829550    1.832300    1.237170
     21          1           0        3.806940    1.477230    2.659890
     22          7           0        5.667360    0.334854    1.494530
     23          6           0        6.657060   -0.139487    0.719343
     24          6           0        6.485140   -0.288060   -0.647577
     25          7           0        7.592670   -0.870825   -1.143510
     26          6           0        8.449310   -1.090990   -0.124420
     27          7           0        7.868050   -0.645577    1.007990
     28          1           0        9.437190   -1.530370   -0.207852
     29          1           0        8.274150   -0.687629    1.929810
 ---------------------------------------------------------------------
                    Distance matrix (angstroms):
                    1          2          3          4          5
     1  C    0.000000
     2  N    1.414305   0.000000
     3  H    2.127220   1.030249   0.000000
     4  H    2.132977   1.030597   1.777345   0.000000
     5  N    1.359739   2.400795   2.624441   3.333999   0.000000
     6  C    2.366373   3.654845   3.979802   4.492986   1.358981
     7  O    3.469988   4.631593   4.757409   5.548834   2.230798
     8  N    2.747164   4.161406   4.756868   4.776144   2.366855
     9  C    2.402986   3.704055   4.527131   4.051532   2.743103
    10  H    3.792332   5.206539   5.784766   5.808378   3.312725
    11  C    1.397965   2.441147   3.371122   2.667869   2.384505
    12  H    3.388130   4.585829   5.480409   4.763031   3.825787
    13  H    2.164036   2.687324   3.712752   2.479854   3.370237
    14  C    5.277616   5.076225   4.214158   5.982632   4.437629
    15  O    5.378908   5.057204   4.158038   5.910912   4.650823
    16  N    4.455552   4.578029   3.910485   5.567734   3.423300
    17  C    4.839665   5.098589   4.551122   6.060899   3.792710
    18  H    3.816126   4.110600   3.571192   5.130938   2.695092
    19  N    4.450643   5.047728   4.773247   5.993632   3.348467
    20  H    4.280290   5.089720   4.910678   6.070925   3.013515
    21  H    5.402166   6.028967   5.779449   6.938365   4.337885
    22  N    5.958994   6.044155   5.410164   6.935315   5.034438
    23  C    6.612727   6.451429   5.654735   7.297689   5.781257
    24  C    6.323967   6.020034   5.117679   6.860716   5.543864
    25  N    7.411123   6.925274   5.953740   7.672910   6.745479
    26  C    8.235249   7.774756   6.840685   8.496768   7.568336
    27  N    7.797234   7.509618   6.671617   8.280621   7.052502
    28  H    9.229133   8.690196   7.737366   9.358281   8.613288
    29  H    8.404887   8.165410   7.381686   8.914426   7.665944
                    6          7          8          9         10
     6  C    0.000000
     7  O    1.217947   0.000000
     8  N    1.373470   2.247140   0.000000
     9  C    2.372245   3.478754   1.359262   0.000000
    10  H    2.101849   2.513236   1.045191   2.082541   0.000000
    11  C    2.752614   3.970558   2.384169   1.393776   3.329721
    12  H    3.353874   4.362416   2.120022   1.082696   2.415730
    13  H    3.835387   5.053332   3.364712   2.153163   4.224470
    14  C    5.204834   4.937271   6.558407   7.177436   7.256691
    15  O    5.500532   5.319182   6.824203   7.364742   7.560483
    16  N    4.010829   3.669325   5.371628   6.102062   6.014145
    17  C    4.163956   3.731760   5.437859   6.231035   5.983187
    18  H    3.238016   2.939848   4.606388   5.358884   5.258490
    19  N    3.351794   2.878559   4.471096   5.357875   4.895207
    20  H    2.696674   1.944173   3.846431   4.909969   4.166365
    21  H    4.168938   3.585842   5.141616   6.074887   5.411716
    22  N    5.454001   5.028019   6.679804   7.420489   7.208449
    23  C    6.386848   6.011180   7.672833   8.339763   8.276369
    24  C    6.299939   5.995559   7.637927   8.246411   8.317659
    25  N    7.583137   7.317489   8.914362   9.454808   9.625819
    26  C    8.345233   8.041427   9.649661  10.207257  10.323987
    27  N    7.698617   7.340350   8.963773   9.584409   9.572829
    28  H    9.418661   9.125747  10.717736  11.245636  11.401763
    29  H    8.238098   7.857955   9.451696  10.082741  10.014638
                   11         12         13         14         15
    11  C    0.000000
    12  H    2.149687   0.000000
    13  H    1.082778   2.479822   0.000000
    14  C    6.639327   8.259275   7.413308   0.000000
    15  O    6.748539   8.441255   7.466726   1.100874   0.000000
    16  N    5.735062   7.172087   6.609347   1.350982   2.144033
    17  C    5.994452   7.252558   6.886728   2.360666   3.365204
    18  H    5.053142   6.427860   5.969174   2.036931   2.412632
    19  N    5.366603   6.303413   6.314914   3.642852   4.534462
    20  H    5.106523   5.844138   6.134833   3.899527   4.627621
    21  H    6.205272   6.939487   7.140115   4.396973   5.371387
    22  N    7.120912   8.421454   7.945996   2.774360   3.875036
    23  C    7.884717   9.377941   8.647221   2.404645   3.409625
    24  C    7.680595   9.319536   8.413373   1.391456   2.174645
    25  N    8.790582  10.529230   9.447898   2.501617   2.862283
    26  C    9.576680  11.262686  10.227856   3.557717   4.125565
    27  N    9.070855  10.612456   9.774358   3.503822   4.360271
    28  H   10.573129  12.298242  11.184497   4.575642   5.032895
    29  H    9.619242  11.078205  10.316840   4.427420   5.334165
                   16         17         18         19         20
    16  N    0.000000
    17  C    1.354832   0.000000
    18  H    1.008340   2.051601   0.000000
    19  N    2.395115   1.413334   2.582958   0.000000
    20  H    2.562275   2.055959   2.374197   1.079798   0.000000
    21  H    3.260347   2.048033   3.574543   1.080379   1.762242
    22  N    2.365085   1.351058   3.269550   2.372441   3.218966
    23  C    2.703126   2.313137   3.711194   3.597140   4.336579
    24  C    2.342087   2.698185   3.257933   4.107744   4.627260
    25  N    3.649610   4.019334   4.506933   5.423238   5.971753
    26  C    4.465505   4.447507   5.421644   5.776821   6.479294
    27  N    4.021118   3.619451   5.027940   4.818592   5.619509
    28  H    5.540119   5.521269   6.485226   6.832792   7.553578
    29  H    4.778006   4.141637   5.781925   5.163000   6.039326
                   21         22         23         24         25
    21  H    0.000000
    22  N    2.474722   0.000000
    23  C    3.808239   1.343659   0.000000
    24  C    4.607422   2.376007   1.385677   0.000000
    25  N    5.857556   3.481341   2.209172   1.346175   0.000000
    26  C    5.991639   3.520409   2.197602   2.185487   1.349388
    27  N    4.871108   2.457845   1.343853   2.186587   2.180716
    28  H    6.997808   4.537486   3.243974   3.232846   2.170878
    29  H    5.017529   2.833777   2.093005   3.162773   3.153295
                   26         27         28         29
    26  C    0.000000
    27  N    1.348558   0.000000
    28  H    1.084400   2.173323   0.000000
    29  H    2.100772   1.008185   2.575359   0.000000
 Stoichiometry    C9H10N8O2
 Framework group  C1[X(C9H10N8O2)]
 Deg. of freedom    81
 Full point group                 C1      NOp   1
 Largest Abelian subgroup         C1      NOp   1
 Largest concise Abelian subgroup C1      NOp   1
                         Standard orientation:                         
 ---------------------------------------------------------------------
 Center     Atomic      Atomic             Coordinates (Angstroms)
 Number     Number       Type             X           Y           Z
 ---------------------------------------------------------------------
      1          6           0       -3.060834    1.315439   -0.464601
      2          7           0       -2.385206    2.507190   -0.816048
      3          1           0       -1.387250    2.622737   -0.587697
      4          1           0       -2.881033    3.268998   -1.301781
      5          7           0       -2.390364    0.320940    0.175970
      6          6           0       -3.016348   -0.833810    0.524575
      7          8           0       -2.394854   -1.710478    1.097806
      8          7           0       -4.346306   -1.010710    0.230743
      9          6           0       -5.046424   -0.036841   -0.408794
     10          1           0       -4.828346   -1.898591    0.498568
     11          6           0       -4.414900    1.151636   -0.771164
     12          1           0       -6.094582   -0.183233   -0.637191
     13          1           0       -4.968418    1.930320   -1.280750
     14          6           0        1.948917    0.636009    1.049994
     15          8           0        1.826716    1.453465    1.777151
     16          7           0        0.939175   -0.214836    0.764272
     17          6           0        1.073748   -1.183156   -0.173713
     18          1           0        0.054717   -0.090532    1.232280
     19          7           0       -0.046906   -1.958296   -0.548955
     20          1           0       -0.674084   -2.152549    0.308294
     21          1           0        0.283743   -2.896643   -0.970138
     22          7           0        2.238416   -1.385596   -0.827871
     23          6           0        3.274641   -0.577448   -0.547596
     24          6           0        3.148542    0.454252    0.368808
     25          7           0        4.301173    1.149682    0.370934
     26          6           0        5.141480    0.581671   -0.519065
     27          7           0        4.504926   -0.468090   -1.077107
     28          1           0        6.155231    0.903066   -0.731046
     29          1           0        4.887836   -1.075968   -1.784427
 ---------------------------------------------------------------------
 Rotational constants (GHZ):      0.8824033      0.1738427      0.1607528
 Standard basis: 6-31G (6D, 7F)
 There are   191 symmetry adapted basis functions of A   symmetry.
 Integral buffers will be    131072 words long.
 Raffenetti 2 integral format.
 Two-electron integral symmetry is turned on.
   191 basis functions,   458 primitive gaussians,   191 cartesian basis functions
    68 alpha electrons       68 beta electrons
       nuclear repulsion energy      1368.5061121813 Hartrees.
 NAtoms=   29 NActive=   29 NUniq=   29 SFac= 7.50D-01 NAtFMM=   80 NAOKFM=F Big=F
 One-electron integrals computed using PRISM.
 NBasis=   191 RedAO= T  NBF=   191
 NBsUse=   191 1.00D-06 NBFU=   191
 Harris functional with IExCor=  402 diagonalized for initial guess.
 ExpMin= 1.61D-01 ExpMax= 5.48D+03 ExpMxC= 8.25D+02 IAcc=1 IRadAn=         1 AccDes= 0.00D+00
 HarFok:  IExCor=  402 AccDes= 0.00D+00 IRadAn=         1 IDoV= 1
 ScaDFX=  1.000000  1.000000  1.000000  1.000000
 FoFCou: FMM=F IPFlag=           0 FMFlag=      100000 FMFlg1=           0
         NFxFlg=           0 DoJE=T BraDBF=F KetDBF=T FulRan=T
         Omega=  0.000000  0.000000  1.000000  0.000000  0.000000 ICntrl=     500 IOpCl=  0
         NMat0=    1 NMatS0=    1 NMatT0=    0 NMatD0=    1 NMtDS0=    0 NMtDT0=    0
         I1Cent=           4 NGrid=           0.
 Petite list used in FoFCou.
 Initial guess orbital symmetries:
       Occupied  (A) (A) (A) (A) (A) (A) (A) (A) (A) (A) (A) (A)
                 (A) (A) (A) (A) (A) (A) (A) (A) (A) (A) (A) (A)
                 (A) (A) (A) (A) (A) (A) (A) (A) (A) (A) (A) (A)
                 (A) (A) (A) (A) (A) (A) (A) (A) (A) (A) (A) (A)
                 (A) (A) (A) (A) (A) (A) (A) (A) (A) (A) (A) (A)
                 (A) (A) (A) (A) (A) (A) (A) (A)
       Virtual   (A) (A) (A) (A) (A) (A) (A) (A) (A) (A) (A) (A)
                 (A) (A) (A) (A) (A) (A) (A) (A) (A) (A) (A) (A)
                 (A) (A) (A) (A) (A) (A) (A) (A) (A) (A) (A) (A)
                 (A) (A) (A) (A) (A) (A) (A) (A) (A) (A) (A) (A)
                 (A) (A) (A) (A) (A) (A) (A) (A) (A) (A) (A) (A)
                 (A) (A) (A) (A) (A) (A) (A) (A) (A) (A) (A) (A)
                 (A) (A) (A) (A) (A) (A) (A) (A) (A) (A) (A) (A)
                 (A) (A) (A) (A) (A) (A) (A) (A) (A) (A) (A) (A)
                 (A) (A) (A) (A) (A) (A) (A) (A) (A) (A) (A) (A)
                 (A) (A) (A) (A) (A) (A) (A) (A) (A) (A) (A) (A)
                 (A) (A) (A)
 The electronic state of the initial guess is 1-A.
 Requested convergence on RMS density matrix=1.00D-08 within 128 cycles.
 Requested convergence on MAX density matrix=1.00D-06.
 Requested convergence on             energy=1.00D-06.
 No special actions if energy rises.
 Keep R1 ints in memory in canonical form, NReq=172032057.
 Integral accuracy reduced to 1.0D-05 until final iterations.
 Initial convergence to 1.0D-05 achieved.  Increase integral accuracy.
 SCF Done:  E(RB3LYP) =  -937.100108971     A.U. after   15 cycles
             Convg  =    0.9350D-08             -V/T =  2.0043

 **********************************************************************

            Population analysis using the SCF density.

 **********************************************************************

 Orbital symmetries:
       Occupied  (A) (A) (A) (A) (A) (A) (A) (A) (A) (A) (A) (A)
                 (A) (A) (A) (A) (A) (A) (A) (A) (A) (A) (A) (A)
                 (A) (A) (A) (A) (A) (A) (A) (A) (A) (A) (A) (A)
                 (A) (A) (A) (A) (A) (A) (A) (A) (A) (A) (A) (A)
                 (A) (A) (A) (A) (A) (A) (A) (A) (A) (A) (A) (A)
                 (A) (A) (A) (A) (A) (A) (A) (A)
       Virtual   (A) (A) (A) (A) (A) (A) (A) (A) (A) (A) (A) (A)
                 (A) (A) (A) (A) (A) (A) (A) (A) (A) (A) (A) (A)
                 (A) (A) (A) (A) (A) (A) (A) (A) (A) (A) (A) (A)
                 (A) (A) (A) (A) (A) (A) (A) (A) (A) (A) (A) (A)
                 (A) (A) (A) (A) (A) (A) (A) (A) (A) (A) (A) (A)
                 (A) (A) (A) (A) (A) (A) (A) (A) (A) (A) (A) (A)
                 (A) (A) (A) (A) (A) (A) (A) (A) (A) (A) (A) (A)
                 (A) (A) (A) (A) (A) (A) (A) (A) (A) (A) (A) (A)
                 (A) (A) (A) (A) (A) (A) (A) (A) (A) (A) (A) (A)
                 (A) (A) (A) (A) (A) (A) (A) (A) (A) (A) (A) (A)
                 (A) (A) (A)
 The electronic state is 1-A.
 Alpha  occ. eigenvalues --  -19.11516 -19.07840 -14.42381 -14.37912 -14.37851
 Alpha  occ. eigenvalues --  -14.35804 -14.33699 -14.33611 -14.30240 -14.29643
 Alpha  occ. eigenvalues --  -10.32844 -10.30925 -10.29339 -10.29069 -10.26058
 Alpha  occ. eigenvalues --  -10.23142 -10.22756 -10.22583 -10.16632  -1.11108
 Alpha  occ. eigenvalues --   -1.08931  -1.03380  -1.00422  -0.99556  -0.96331
 Alpha  occ. eigenvalues --   -0.89507  -0.89355  -0.87696  -0.86835  -0.81279
 Alpha  occ. eigenvalues --   -0.74006  -0.70503  -0.67898  -0.66758  -0.64613
 Alpha  occ. eigenvalues --   -0.60959  -0.59852  -0.58778  -0.57989  -0.55045
 Alpha  occ. eigenvalues --   -0.54557  -0.52023  -0.50652  -0.48576  -0.47894
 Alpha  occ. eigenvalues --   -0.47414  -0.47321  -0.46271  -0.45865  -0.44425
 Alpha  occ. eigenvalues --   -0.42948  -0.42239  -0.41274  -0.39569  -0.39261
 Alpha  occ. eigenvalues --   -0.37957  -0.36775  -0.28462  -0.27716  -0.27296
 Alpha  occ. eigenvalues --   -0.27021  -0.26959  -0.26551  -0.25835  -0.24873
 Alpha  occ. eigenvalues --   -0.23518  -0.21135  -0.17612
 Alpha virt. eigenvalues --   -0.06502  -0.00165   0.01332   0.03424   0.03793
 Alpha virt. eigenvalues --    0.05517   0.07777   0.08831   0.09289   0.10103
 Alpha virt. eigenvalues --    0.11483   0.11790   0.13168   0.14557   0.14574
 Alpha virt. eigenvalues --    0.17954   0.19938   0.20533   0.21484   0.22442
 Alpha virt. eigenvalues --    0.23913   0.26171   0.27624   0.28890   0.29421
 Alpha virt. eigenvalues --    0.32595   0.33367   0.33872   0.34165   0.35810
 Alpha virt. eigenvalues --    0.38278   0.39030   0.42599   0.45093   0.47143
 Alpha virt. eigenvalues --    0.47650   0.49569   0.51059   0.52389   0.54255
 Alpha virt. eigenvalues --    0.56221   0.56288   0.56668   0.56897   0.58593
 Alpha virt. eigenvalues --    0.59113   0.60175   0.60780   0.61423   0.62143
 Alpha virt. eigenvalues --    0.63688   0.64228   0.64642   0.65374   0.66049
 Alpha virt. eigenvalues --    0.66916   0.68130   0.68683   0.69028   0.70255
 Alpha virt. eigenvalues --    0.72056   0.72628   0.72835   0.74556   0.75069
 Alpha virt. eigenvalues --    0.78155   0.79214   0.79814   0.81973   0.82321
 Alpha virt. eigenvalues --    0.84892   0.85181   0.85329   0.85493   0.87107
 Alpha virt. eigenvalues --    0.87637   0.88161   0.88905   0.88978   0.89858
 Alpha virt. eigenvalues --    0.90169   0.90890   0.92053   0.93456   0.94320
 Alpha virt. eigenvalues --    0.96174   0.96545   0.98516   1.01448   1.01894
 Alpha virt. eigenvalues --    1.03497   1.04829   1.05843   1.08577   1.09928
 Alpha virt. eigenvalues --    1.10317   1.11225   1.12631   1.14385   1.17197
 Alpha virt. eigenvalues --    1.18591   1.22012   1.24160   1.27272   1.31154
 Alpha virt. eigenvalues --    1.34853   1.36739   1.41438   1.42026   1.44835
 Alpha virt. eigenvalues --    1.47263   1.53527   1.57549   1.60799   1.67133
 Alpha virt. eigenvalues --    1.71105   1.73530   1.80028   1.86881   1.91506
 Alpha virt. eigenvalues --    1.98778   2.07200   2.15598
          Condensed to atoms (all electrons):
              1          2          3          4          5          6
     1  C    4.651766   0.248370  -0.006778  -0.023160   0.409591  -0.004978
     2  N    0.248370   7.073757   0.300580   0.320250  -0.088442   0.004265
     3  H   -0.006778   0.300580   0.358904  -0.020931   0.004568  -0.000176
     4  H   -0.023160   0.320250  -0.020931   0.387996   0.002598  -0.000066
     5  N    0.409591  -0.088442   0.004568   0.002598   7.236459   0.264732
     6  C   -0.004978   0.004265  -0.000176  -0.000066   0.264732   4.697459
     7  O    0.003176   0.000011  -0.000019   0.000001  -0.139344   0.565750
     8  N   -0.018133  -0.000282   0.000030   0.000021  -0.183110  -0.029649
     9  C   -0.050754   0.004116  -0.000115   0.000104  -0.007987  -0.025785
    10  H    0.000656   0.000016  -0.000001   0.000000   0.004561   0.002279
    11  C    0.345385  -0.102223   0.005753  -0.001078  -0.077082  -0.038852
    12  H    0.003754  -0.000109   0.000002   0.000001   0.000122   0.001817
    13  H   -0.019237  -0.003297  -0.000125   0.002707   0.004421   0.000980
    14  C    0.000010  -0.000005   0.000145   0.000000   0.000005   0.000023
    15  O    0.000002  -0.000003   0.000038   0.000000  -0.000008  -0.000001
    16  N    0.000003   0.000021   0.000160   0.000000  -0.002867  -0.001148
    17  C    0.000010   0.000003  -0.000004   0.000000   0.000421   0.000047
    18  H    0.000431  -0.000286   0.000312   0.000002   0.013714   0.004583
    19  N    0.000074   0.000003  -0.000003   0.000000   0.001530   0.001107
    20  H    0.000002   0.000005  -0.000001   0.000000  -0.002632  -0.005463
    21  H    0.000001   0.000000   0.000000   0.000000   0.000016   0.000145
    22  N    0.000000   0.000000  -0.000001   0.000000   0.000004  -0.000003
    23  C    0.000000   0.000000  -0.000001   0.000000   0.000003   0.000002
    24  C   -0.000001   0.000000   0.000013   0.000000  -0.000015  -0.000004
    25  N    0.000000   0.000000   0.000000   0.000000   0.000000   0.000000
    26  C    0.000000   0.000000   0.000000   0.000000   0.000000   0.000000
    27  N    0.000000   0.000000   0.000000   0.000000   0.000000   0.000000
    28  H    0.000000   0.000000   0.000000   0.000000   0.000000   0.000000
    29  H    0.000000   0.000000   0.000000   0.000000   0.000000   0.000000
              7          8          9         10         11         12
     1  C    0.003176  -0.018133  -0.050754   0.000656   0.345385   0.003754
     2  N    0.000011  -0.000282   0.004116   0.000016  -0.102223  -0.000109
     3  H   -0.000019   0.000030  -0.000115  -0.000001   0.005753   0.000002
     4  H    0.000001   0.000021   0.000104   0.000000  -0.001078   0.000001
     5  N   -0.139344  -0.183110  -0.007987   0.004561  -0.077082   0.000122
     6  C    0.565750  -0.029649  -0.025785   0.002279  -0.038852   0.001817
     7  O    8.161826  -0.150435   0.001778   0.006309  -0.000193  -0.000083
     8  N   -0.150435   7.587101   0.232333   0.290186  -0.040879  -0.043781
     9  C    0.001778   0.232333   4.803431  -0.023506   0.586334   0.364430
    10  H    0.006309   0.290186  -0.023506   0.359904   0.002761  -0.003769
    11  C   -0.000193  -0.040879   0.586334   0.002761   5.150108  -0.020583
    12  H   -0.000083  -0.043781   0.364430  -0.003769  -0.020583   0.517431
    13  H    0.000007   0.003737  -0.030744  -0.000071   0.344374  -0.002998
    14  C    0.000015   0.000000   0.000000   0.000000   0.000000   0.000000
    15  O    0.000000   0.000000   0.000000   0.000000   0.000000   0.000000
    16  N   -0.000181  -0.000009   0.000000   0.000000  -0.000005   0.000000
    17  C   -0.000657   0.000003   0.000000   0.000000   0.000000   0.000000
    18  H    0.003450   0.000184  -0.000005  -0.000003   0.000059   0.000000
    19  N   -0.018529  -0.000268   0.000017   0.000001  -0.000014   0.000000
    20  H    0.043488   0.000457  -0.000021   0.000027  -0.000005   0.000000
    21  H    0.000408   0.000007   0.000000  -0.000001   0.000000   0.000000
    22  N   -0.000007   0.000000   0.000000   0.000000   0.000000   0.000000
    23  C    0.000000   0.000000   0.000000   0.000000   0.000000   0.000000
    24  C   -0.000001   0.000000   0.000000   0.000000   0.000000   0.000000
    25  N    0.000000   0.000000   0.000000   0.000000   0.000000   0.000000
    26  C    0.000000   0.000000   0.000000   0.000000   0.000000   0.000000
    27  N    0.000000   0.000000   0.000000   0.000000   0.000000   0.000000
    28  H    0.000000   0.000000   0.000000   0.000000   0.000000   0.000000
    29  H    0.000000   0.000000   0.000000   0.000000   0.000000   0.000000
             13         14         15         16         17         18
     1  C   -0.019237   0.000010   0.000002   0.000003   0.000010   0.000431
     2  N   -0.003297  -0.000005  -0.000003   0.000021   0.000003  -0.000286
     3  H   -0.000125   0.000145   0.000038   0.000160  -0.000004   0.000312
     4  H    0.002707   0.000000   0.000000   0.000000   0.000000   0.000002
     5  N    0.004421   0.000005  -0.000008  -0.002867   0.000421   0.013714
     6  C    0.000980   0.000023  -0.000001  -0.001148   0.000047   0.004583
     7  O    0.000007   0.000015   0.000000  -0.000181  -0.000657   0.003450
     8  N    0.003737   0.000000   0.000000  -0.000009   0.000003   0.000184
     9  C   -0.030744   0.000000   0.000000   0.000000   0.000000  -0.000005
    10  H   -0.000071   0.000000   0.000000   0.000000   0.000000  -0.000003
    11  C    0.344374   0.000000   0.000000  -0.000005   0.000000   0.000059
    12  H   -0.002998   0.000000   0.000000   0.000000   0.000000   0.000000
    13  H    0.553847   0.000000   0.000000   0.000000   0.000000   0.000000
    14  C    0.000000   5.188578   0.819854   0.016718  -0.045381  -0.008470
    15  O    0.000000   0.819854   7.770030  -0.172846   0.001517   0.005276
    16  N    0.000000   0.016718  -0.172846   7.970805   0.146832   0.271263
    17  C    0.000000  -0.045381   0.001517   0.146832   4.627962  -0.007093
    18  H    0.000000  -0.008470   0.005276   0.271263  -0.007093   0.343750
    19  N    0.000000  -0.000973  -0.000054  -0.110825   0.278704  -0.002721
    20  H    0.000000  -0.000022  -0.000004  -0.004114  -0.023966   0.001075
    21  H    0.000000   0.000069   0.000002   0.007340  -0.015514   0.000057
    22  N    0.000000  -0.027932   0.000126  -0.114158   0.554906   0.003296
    23  C    0.000000  -0.094318   0.007309   0.006762  -0.085138  -0.000585
    24  C    0.000000  -0.170046  -0.157997  -0.331007   0.013026   0.009261
    25  N    0.000000  -0.074817   0.000172   0.002141   0.001859   0.000018
    26  C    0.000000   0.007558  -0.000080  -0.000312   0.000092   0.000005
    27  N    0.000000   0.006579  -0.000085   0.000438   0.001758   0.000019
    28  H    0.000000  -0.000098  -0.000002   0.000002   0.000002   0.000000
    29  H    0.000000   0.000344   0.000002   0.000048  -0.000052  -0.000001
             19         20         21         22         23         24
     1  C    0.000074   0.000002   0.000001   0.000000   0.000000  -0.000001
     2  N    0.000003   0.000005   0.000000   0.000000   0.000000   0.000000
     3  H   -0.000003  -0.000001   0.000000  -0.000001  -0.000001   0.000013
     4  H    0.000000   0.000000   0.000000   0.000000   0.000000   0.000000
     5  N    0.001530  -0.002632   0.000016   0.000004   0.000003  -0.000015
     6  C    0.001107  -0.005463   0.000145  -0.000003   0.000002  -0.000004
     7  O   -0.018529   0.043488   0.000408  -0.000007   0.000000  -0.000001
     8  N   -0.000268   0.000457   0.000007   0.000000   0.000000   0.000000
     9  C    0.000017  -0.000021   0.000000   0.000000   0.000000   0.000000
    10  H    0.000001   0.000027  -0.000001   0.000000   0.000000   0.000000
    11  C   -0.000014  -0.000005   0.000000   0.000000   0.000000   0.000000
    12  H    0.000000   0.000000   0.000000   0.000000   0.000000   0.000000
    13  H    0.000000   0.000000   0.000000   0.000000   0.000000   0.000000
    14  C   -0.000973  -0.000022   0.000069  -0.027932  -0.094318  -0.170046
    15  O   -0.000054  -0.000004   0.000002   0.000126   0.007309  -0.157997
    16  N   -0.110825  -0.004114   0.007340  -0.114158   0.006762  -0.331007
    17  C    0.278704  -0.023966  -0.015514   0.554906  -0.085138   0.013026
    18  H   -0.002721   0.001075   0.000057   0.003296  -0.000585   0.009261
    19  N    7.080113   0.264484   0.282852  -0.091843   0.002409  -0.000383
    20  H    0.264484   0.406323  -0.021955   0.003583  -0.000191  -0.000001
    21  H    0.282852  -0.021955   0.446099  -0.000514   0.000010   0.000169
    22  N   -0.091843   0.003583  -0.000514   6.894759   0.285297  -0.044871
    23  C    0.002409  -0.000191   0.000010   0.285297   5.261505   0.225960
    24  C   -0.000383  -0.000001   0.000169  -0.044871   0.225960   6.232833
    25  N    0.000004   0.000000  -0.000001   0.013755  -0.122728   0.407243
    26  C    0.000000   0.000000   0.000000   0.004308  -0.115517  -0.119045
    27  N   -0.000004  -0.000001  -0.000033  -0.058111   0.192150  -0.089953
    28  H    0.000000   0.000000   0.000000  -0.000047   0.002428   0.005011
    29  H   -0.000010   0.000000   0.000004   0.002813  -0.015513   0.012343
             25         26         27         28         29
     1  C    0.000000   0.000000   0.000000   0.000000   0.000000
     2  N    0.000000   0.000000   0.000000   0.000000   0.000000
     3  H    0.000000   0.000000   0.000000   0.000000   0.000000
     4  H    0.000000   0.000000   0.000000   0.000000   0.000000
     5  N    0.000000   0.000000   0.000000   0.000000   0.000000
     6  C    0.000000   0.000000   0.000000   0.000000   0.000000
     7  O    0.000000   0.000000   0.000000   0.000000   0.000000
     8  N    0.000000   0.000000   0.000000   0.000000   0.000000
     9  C    0.000000   0.000000   0.000000   0.000000   0.000000
    10  H    0.000000   0.000000   0.000000   0.000000   0.000000
    11  C    0.000000   0.000000   0.000000   0.000000   0.000000
    12  H    0.000000   0.000000   0.000000   0.000000   0.000000
    13  H    0.000000   0.000000   0.000000   0.000000   0.000000
    14  C   -0.074817   0.007558   0.006579  -0.000098   0.000344
    15  O    0.000172  -0.000080  -0.000085  -0.000002   0.000002
    16  N    0.002141  -0.000312   0.000438   0.000002   0.000048
    17  C    0.001859   0.000092   0.001758   0.000002  -0.000052
    18  H    0.000018   0.000005   0.000019   0.000000  -0.000001
    19  N    0.000004   0.000000  -0.000004   0.000000  -0.000010
    20  H    0.000000   0.000000  -0.000001   0.000000   0.000000
    21  H   -0.000001   0.000000  -0.000033   0.000000   0.000004
    22  N    0.013755   0.004308  -0.058111  -0.000047   0.002813
    23  C   -0.122728  -0.115517   0.192150   0.002428  -0.015513
    24  C    0.407243  -0.119045  -0.089953   0.005011   0.012343
    25  N    6.797458   0.520185  -0.114218  -0.028662   0.004527
    26  C    0.520185   4.875073   0.231679   0.379659  -0.013684
    27  N   -0.114218   0.231679   7.310737  -0.057239   0.287266
    28  H   -0.028662   0.379659  -0.057239   0.531351   0.000856
    29  H    0.004527  -0.013684   0.287266   0.000856   0.396240
 Mulliken atomic charges:
              1
     1  C    0.459810
     2  N   -0.756748
     3  H    0.357650
     4  H    0.331555
     5  N   -0.441256
     6  C    0.562935
     7  O   -0.476769
     8  N   -0.647513
     9  C    0.146374
    10  H    0.360652
    11  C   -0.153860
    12  H    0.183766
    13  H    0.146399
    14  C    0.382166
    15  O   -0.273249
    16  N   -0.685059
    17  C    0.550664
    18  H    0.362409
    19  N   -0.685671
    20  H    0.338933
    21  H    0.300838
    22  N   -0.425362
    23  C    0.450156
    24  C    0.007464
    25  N   -0.406935
    26  C    0.230077
    27  N   -0.710983
    28  H    0.166738
    29  H    0.324817
 Sum of Mulliken atomic charges =   0.00000
 Mulliken charges with hydrogens summed into heavy atoms:
              1
     1  C    0.459810
     2  N   -0.067543
     5  N   -0.441256
     6  C    0.562935
     7  O   -0.476769
     8  N   -0.286862
     9  C    0.330140
    11  C   -0.007460
    14  C    0.382166
    15  O   -0.273249
    16  N   -0.322650
    17  C    0.550664
    19  N   -0.045900
    22  N   -0.425362
    23  C    0.450156
    24  C    0.007464
    25  N   -0.406935
    26  C    0.396815
    27  N   -0.386167
 Sum of Mulliken charges with hydrogens summed into heavy atoms =   0.00000
 Electronic spatial extent (au):  <R**2>=           6485.0386
 Charge=              0.0000 electrons
 Dipole moment (field-independent basis, Debye):
    X=             -9.0457    Y=             -1.2471    Z=             -5.3385  Tot=             10.5773
 Quadrupole moment (field-independent basis, Debye-Ang):
   XX=            -58.0704   YY=           -100.2320   ZZ=           -113.8399
   XY=            -15.4243   XZ=             -8.2025   YZ=            -10.2045
 Traceless Quadrupole moment (field-independent basis, Debye-Ang):
   XX=             32.6437   YY=             -9.5179   ZZ=            -23.1258
   XY=            -15.4243   XZ=             -8.2025   YZ=            -10.2045
 Octapole moment (field-independent basis, Debye-Ang**2):
  XXX=           -179.5164  YYY=              5.9950  ZZZ=             -7.3043  XYY=            -65.3989
  XXY=            -58.7604  XXZ=           -101.3664  XZZ=             -0.7949  YZZ=             -4.6507
  YYZ=            -33.4667  XYZ=              1.9886
 Hexadecapole moment (field-independent basis, Debye-Ang**3):
 XXXX=          -4896.7361 YYYY=           -917.8802 ZZZZ=           -513.4956 XXXY=            -31.7258
 XXXZ=           -290.3704 YYYX=            -97.8824 YYYZ=            -60.0970 ZZZX=            -49.9433
 ZZZY=            -17.0468 XXYY=          -1262.6645 XXZZ=          -1205.3075 YYZZ=           -270.4399
 XXYZ=            -88.3776 YYXZ=             22.5597 ZZXY=            -62.9772
 N-N= 1.368506112181D+03 E-N=-4.926158143624D+03  KE= 9.331334577345D+02
 Calling FoFJK, ICntrl=      2127 FMM=F ISym2X=0 I1Cent= 0 IOpClX= 0 NMat=1 NMatS=1 NMatT=0.
 ***** Axes restored to original set *****
 -------------------------------------------------------------------
 Center     Atomic                   Forces (Hartrees/Bohr)
 Number     Number              X              Y              Z
 -------------------------------------------------------------------
      1        6           0.048614895   -0.008629074   -0.015882551
      2        7          -0.010419759    0.022881109    0.010313541
      3        1          -0.018202377    0.002812996    0.005898623
      4        1           0.011362072    0.017684047    0.002671817
      5        7          -0.003265319   -0.046794004   -0.017422368
      6        6           0.013286331   -0.021346241   -0.010811290
      7        8           0.029212220    0.061696559    0.011517313
      8        7          -0.047769961    0.011876662    0.017382743
      9        6           0.003258150   -0.033963367   -0.012324550
     10        1           0.017195870   -0.019707851   -0.011305976
     11        6          -0.039711439    0.010738072    0.014859417
     12        1           0.001195949    0.004963071    0.001254793
     13        1          -0.002030577    0.001487813    0.001043084
     14        6           0.066121809    0.010395160    0.218306635
     15        8          -0.067317442   -0.030079865   -0.349200224
     16        7          -0.035607844    0.022929666    0.047455091
     17        6           0.019776273   -0.008458794    0.052278686
     18        1          -0.006994891   -0.003001508   -0.003278425
     19        7           0.020608466    0.058226941   -0.000389127
     20        1           0.006272108   -0.033538602    0.017933192
     21        1          -0.014964226   -0.023831222   -0.034791016
     22        7          -0.028296950    0.016929116    0.030967741
     23        6          -0.041324243    0.009596313   -0.018751456
     24        6           0.038459627   -0.004599704    0.062348370
     25        7           0.043284234   -0.024342515   -0.035612308
     26        6          -0.012878805   -0.000914173   -0.049932081
     27        7           0.018299683    0.003385036    0.061727161
     28        1          -0.006357539    0.002711519    0.002161880
     29        1          -0.001806313    0.000892841    0.001581283
 -------------------------------------------------------------------
 Cartesian Forces:  Max     0.349200224 RMS     0.051797794

 GradGradGradGradGradGradGradGradGradGradGradGradGradGradGradGradGradGrad
 Berny optimization.
 Internal  Forces:  Max     0.356460417 RMS     0.034594376
 Search for a local minimum.
 Step number   1 out of a maximum of  153
 All quantities printed in internal units (Hartrees-Bohrs-Radians)
 Mixed Optimization -- RFO/linear search
 Second derivative matrix not updated -- first step.
     Eigenvalues ---    0.00230   0.00230   0.01503   0.01503   0.01515
     Eigenvalues ---    0.01913   0.02042   0.02102   0.02136   0.02148
     Eigenvalues ---    0.02163   0.02203   0.02218   0.02258   0.02285
     Eigenvalues ---    0.02291   0.02316   0.02325   0.02369   0.02370
     Eigenvalues ---    0.02389   0.02403   0.02412   0.02565   0.04100
     Eigenvalues ---    0.04581   0.04730   0.13073   0.15980   0.15997
     Eigenvalues ---    0.16000   0.16000   0.16000   0.16000   0.16000
     Eigenvalues ---    0.16000   0.16000   0.16000   0.22068   0.22714
     Eigenvalues ---    0.23468   0.23492   0.24679   0.24844   0.24902
     Eigenvalues ---    0.24957   0.24978   0.24995   0.25000   0.25000
     Eigenvalues ---    0.25000   0.35468   0.35661   0.35671   0.35949
     Eigenvalues ---    0.36019   0.40550   0.40781   0.42689   0.42742
     Eigenvalues ---    0.43283   0.43330   0.43480   0.45090   0.45536
     Eigenvalues ---    0.46252   0.46278   0.48749   0.48836   0.50249
     Eigenvalues ---    0.51022   0.52300   0.52561   0.52658   0.53049
     Eigenvalues ---    0.54558   0.55474   0.55846   0.56042   0.96299
     Eigenvalues ---    1.758411000.000001000.000001000.000001000.00000
     Eigenvalues --- 1000.000001000.000001000.000001000.000001000.00000
     Eigenvalues --- 1000.000001000.000001000.000001000.000001000.00000
     Eigenvalues --- 1000.000001000.000001000.000001000.000001000.00000
     Eigenvalues --- 1000.000001000.000001000.000001000.000001000.00000
     Eigenvalues --- 1000.000001000.000001000.000001000.000001000.00000
     Eigenvalues --- 1000.000001000.000001000.000001000.000001000.00000
     Eigenvalues --- 1000.000001000.000001000.000001000.000001000.00000
     Eigenvalues --- 1000.000001000.000001000.000001000.000001000.00000
     Eigenvalues --- 1000.000001000.000001000.000001000.000001000.00000
     Eigenvalues --- 1000.000001000.000001000.000001000.000001000.00000
     Eigenvalues --- 1000.000001000.000001000.000001000.000001000.00000
     Eigenvalues --- 1000.000001000.000001000.00000
 RFO step:  Lambda=-1.47485405D-01 EMin= 2.30000000D-03
 Linear search not attempted -- first point.
 Maximum step size (   0.300) exceeded in Quadratic search.
    -- Step size scaled by   0.656
 Iteration  1 RMS(Cart)=  0.11887993 RMS(Int)=  0.00282447
 Iteration  2 RMS(Cart)=  0.01083092 RMS(Int)=  0.00012769
 Iteration  3 RMS(Cart)=  0.00003809 RMS(Int)=  0.00012536
 Iteration  4 RMS(Cart)=  0.00000001 RMS(Int)=  0.00012536
 Variable       Old X    -DE/DX   Delta X   Delta X   Delta X     New X
                                 (Linear)    (Quad)   (Total)
    R1        2.67265  -0.05016   0.00000  -0.05664  -0.05664   2.61601
    R2        2.56953  -0.02160   0.00000  -0.02113  -0.02112   2.54842
    R3        2.64177   0.03159   0.00000   0.03307   0.03306   2.67483
    R4        1.94689  -0.01909   0.00000  -0.02178  -0.02178   1.92511
    R5        1.94755  -0.02119   0.00000  -0.02419  -0.02419   1.92336
    R6        2.56810   0.02049   0.00000   0.02050   0.02052   2.58862
    R7        2.30159   0.06403   0.00000   0.03781   0.03781   2.33940
    R8        2.59548   0.03658   0.00000   0.03786   0.03786   2.63335
    R9        3.67395  -0.00065   0.00000  -0.00220  -0.00220   3.67176
   R10        2.56863   0.00902   0.00000   0.00896   0.00895   2.57758
   R11        1.97513  -0.02765   0.00000  -0.03279  -0.03279   1.94233
   R12        2.63385  -0.02671   0.00000  -0.02931  -0.02932   2.60453
   R13        2.04600  -0.00073   0.00000  -0.00094  -0.00094   2.04505
   R14        2.04615  -0.00019   0.00000  -0.00025  -0.00025   2.04590
   R15        2.08035   0.35646   0.00000   0.12265   0.12265   2.20300
   R16        2.55299   0.07880   0.00000   0.07609   0.07629   2.62927
   R17        2.62947   0.05899   0.00000   0.06525   0.06552   2.69499
   R18        2.56026   0.02927   0.00000   0.02738   0.02732   2.58758
   R19        1.90549   0.00663   0.00000   0.00713   0.00713   1.91262
   R20        2.67081  -0.02163   0.00000  -0.02436  -0.02436   2.64646
   R21        2.55313  -0.02848   0.00000  -0.02922  -0.02949   2.52364
   R22        2.04052  -0.03267   0.00000  -0.04221  -0.04221   1.99831
   R23        2.04162  -0.04398   0.00000  -0.05689  -0.05689   1.98473
   R24        2.53915   0.02268   0.00000   0.01910   0.01889   2.55803
   R25        2.61855   0.02696   0.00000   0.02979   0.02981   2.64836
   R26        2.53951   0.02215   0.00000   0.02139   0.02143   2.56094
   R27        2.54390   0.03520   0.00000   0.03233   0.03227   2.57617
   R28        2.54997  -0.01382   0.00000  -0.01420  -0.01419   2.53578
   R29        2.54841   0.04676   0.00000   0.04338   0.04343   2.59184
   R30        2.04922  -0.00706   0.00000  -0.00922  -0.00922   2.04000
   R31        1.90519   0.00068   0.00000   0.00073   0.00073   1.90593
    A1        2.09187  -0.01751   0.00000  -0.02783  -0.02783   2.06404
    A2        2.10244   0.00053   0.00000   0.00194   0.00194   2.10438
    A3        2.08888   0.01698   0.00000   0.02589   0.02589   2.11477
    A4        2.09690  -0.00403   0.00000  -0.00860  -0.00860   2.08830
    A5        2.10617   0.00207   0.00000   0.00441   0.00441   2.11058
    A6        2.08012   0.00196   0.00000   0.00418   0.00418   2.08430
    A7        2.11203  -0.00336   0.00000  -0.00449  -0.00445   2.10757
    A8        2.09128   0.01699   0.00000   0.02668   0.02666   2.11795
    A9        2.09509  -0.01797   0.00000  -0.02694  -0.02692   2.06816
   A10        2.09682   0.00098   0.00000   0.00026   0.00025   2.09707
   A11        2.00886  -0.00351   0.00000  -0.00748  -0.00748   2.00137
   A12        2.10265   0.00996   0.00000   0.01981   0.01980   2.12245
   A13        2.09576  -0.01177   0.00000  -0.02439  -0.02438   2.07137
   A14        2.08478   0.00181   0.00000   0.00458   0.00458   2.08936
   A15        2.09426  -0.00012   0.00000  -0.00121  -0.00125   2.09301
   A16        2.09557  -0.00527   0.00000  -0.01075  -0.01074   2.08484
   A17        2.09335   0.00539   0.00000   0.01197   0.01198   2.10534
   A18        2.07347  -0.00549   0.00000  -0.01305  -0.01307   2.06040
   A19        2.11074   0.00553   0.00000   0.01246   0.01247   2.12321
   A20        2.09897  -0.00003   0.00000   0.00059   0.00060   2.09957
   A21        2.12279   0.00467   0.00000   0.00373   0.00346   2.12625
   A22        2.11304   0.04141   0.00000   0.06437   0.06410   2.17713
   A23        2.04718  -0.04609   0.00000  -0.06808  -0.06754   1.97965
   A24        2.12035   0.02049   0.00000   0.03955   0.03973   2.16008
   A25        2.07121  -0.01155   0.00000  -0.02259  -0.02268   2.04853
   A26        2.09043  -0.00899   0.00000  -0.01719  -0.01729   2.07315
   A27        2.09098  -0.01883   0.00000  -0.02887  -0.02872   2.06226
   A28        2.12696   0.01355   0.00000   0.01787   0.01756   2.14452
   A29        2.06326   0.00524   0.00000   0.01084   0.01099   2.07424
   A30        1.92669   0.00956   0.00000   0.02394   0.02368   1.95037
   A31        1.91472   0.00304   0.00000   0.01175   0.01142   1.92614
   A32        1.90818   0.00103   0.00000   0.00752   0.00710   1.91528
   A33        2.49076   0.01402   0.00000   0.02313   0.02313   2.51389
   A34        2.06427  -0.01562   0.00000  -0.03626  -0.03697   2.02730
   A35        2.11248   0.03275   0.00000   0.05058   0.05046   2.16293
   A36        2.30875  -0.02007   0.00000  -0.03392  -0.03389   2.27486
   A37        1.85804  -0.01257   0.00000  -0.01616  -0.01608   1.84196
   A38        2.09378  -0.00503   0.00000  -0.00345  -0.00305   2.09073
   A39        2.30491  -0.01479   0.00000  -0.02770  -0.02785   2.27706
   A40        1.88363   0.01980   0.00000   0.03114   0.03090   1.91453
   A41        1.89094  -0.01981   0.00000  -0.03615  -0.03618   1.85475
   A42        1.88248   0.02320   0.00000   0.03886   0.03894   1.92142
   A43        2.19732  -0.00997   0.00000  -0.01596  -0.01600   2.18132
   A44        2.20321  -0.01322   0.00000  -0.02290  -0.02294   2.18027
   A45        1.90968  -0.01062   0.00000  -0.01768  -0.01757   1.89210
   A46        2.18350   0.00296   0.00000   0.00383   0.00377   2.18727
   A47        2.19001   0.00766   0.00000   0.01385   0.01380   2.20381
    D1       -0.00006   0.00003   0.00000   0.00011   0.00011   0.00005
    D2        3.14155   0.00013   0.00000   0.00052   0.00052  -3.14111
    D3        3.14153  -0.00019   0.00000  -0.00076  -0.00076   3.14078
    D4       -0.00004  -0.00009   0.00000  -0.00035  -0.00034  -0.00039
    D5        3.14159  -0.00001   0.00000  -0.00005  -0.00003   3.14156
    D6        0.00000   0.00021   0.00000   0.00082   0.00084   0.00084
    D7       -3.14159   0.00040   0.00000   0.00153   0.00155  -3.14004
    D8        0.00000   0.00014   0.00000   0.00054   0.00054   0.00054
    D9        0.00000   0.00017   0.00000   0.00066   0.00066   0.00066
   D10        3.14159  -0.00009   0.00000  -0.00033  -0.00034   3.14124
   D11        3.14158   0.00049   0.00000   0.00183   0.00187  -3.13974
   D12        0.00000  -0.00058   0.00000  -0.00222  -0.00220  -0.00219
   D13       -0.83106  -0.00351   0.00000  -0.01238  -0.01242  -0.84348
   D14        2.31051  -0.00244   0.00000  -0.00832  -0.00828   2.30223
   D15        0.00000   0.00056   0.00000   0.00214   0.00212   0.00212
   D16        3.14158   0.00047   0.00000   0.00178   0.00176  -3.13984
   D17       -3.14158  -0.00051   0.00000  -0.00193  -0.00189   3.13971
   D18        0.00000  -0.00061   0.00000  -0.00229  -0.00225  -0.00225
   D19       -0.12703  -0.01624   0.00000  -0.07108  -0.07108  -0.19811
   D20        0.00000  -0.00017   0.00000  -0.00065  -0.00064  -0.00064
   D21       -3.14159  -0.00012   0.00000  -0.00044  -0.00045   3.14115
   D22       -3.14158  -0.00008   0.00000  -0.00029  -0.00028   3.14132
   D23        0.00001  -0.00002   0.00000  -0.00009  -0.00008  -0.00007
   D24        0.00000  -0.00019   0.00000  -0.00074  -0.00074  -0.00074
   D25       -3.14159   0.00006   0.00000   0.00025   0.00025  -3.14134
   D26        3.14159  -0.00025   0.00000  -0.00095  -0.00094   3.14065
   D27        0.00000   0.00001   0.00000   0.00004   0.00005   0.00005
   D28        3.09021   0.00079   0.00000   0.00198   0.00195   3.09216
   D29        0.00114   0.00216   0.00000   0.00765   0.00762   0.00876
   D30       -0.03141   0.00041   0.00000   0.00037   0.00028  -0.03112
   D31       -3.12048   0.00179   0.00000   0.00604   0.00595  -3.11452
   D32       -3.13482   0.00100   0.00000   0.00273   0.00266  -3.13216
   D33       -0.04365   0.00109   0.00000   0.00351   0.00350  -0.04015
   D34       -0.01308   0.00094   0.00000   0.00360   0.00359  -0.00950
   D35        3.07809   0.00102   0.00000   0.00439   0.00442   3.08251
   D36       -3.02103  -0.00011   0.00000  -0.00054  -0.00059  -3.02162
   D37        0.05155  -0.00054   0.00000  -0.00300  -0.00307   0.04848
   D38        0.06747  -0.00156   0.00000  -0.00641  -0.00646   0.06101
   D39        3.14005  -0.00200   0.00000  -0.00887  -0.00895   3.13111
   D40       -0.64092   0.00064   0.00000  -0.00104  -0.00092  -0.64184
   D41       -2.74486  -0.00867   0.00000  -0.03314  -0.03329  -2.77816
   D42        2.56718   0.00069   0.00000   0.00097   0.00112   2.56830
   D43        0.46324  -0.00862   0.00000  -0.03113  -0.03125   0.43199
   D44       -0.02373   0.00127   0.00000   0.00446   0.00445  -0.01928
   D45        3.04991  -0.00009   0.00000   0.00052   0.00044   3.05035
   D46        1.91583  -0.01489   0.00000  -0.05955  -0.05966   1.85617
   D47       -2.25950  -0.00444   0.00000  -0.02511  -0.02500  -2.28450
   D48       -0.02152  -0.00096   0.00000  -0.00140  -0.00136  -0.02288
   D49       -3.05422  -0.00220   0.00000  -0.00804  -0.00799  -3.06221
   D50        0.04010  -0.00014   0.00000  -0.00235  -0.00243   0.03767
   D51       -3.06216   0.00057   0.00000  -0.00158  -0.00170  -3.06387
   D52        3.09775  -0.00041   0.00000   0.00058   0.00066   3.09841
   D53       -0.00450   0.00030   0.00000   0.00135   0.00138  -0.00312
   D54        3.05056   0.00290   0.00000   0.00777   0.00764   3.05820
   D55       -0.08690   0.00248   0.00000   0.00695   0.00685  -0.08005
   D56        0.00621  -0.00049   0.00000  -0.00159  -0.00157   0.00464
   D57       -3.13125  -0.00091   0.00000  -0.00242  -0.00236  -3.13361
   D58       -3.09455   0.00022   0.00000  -0.00094  -0.00101  -3.09555
   D59        0.00114  -0.00012   0.00000  -0.00078  -0.00081   0.00034
   D60        0.00267  -0.00009   0.00000  -0.00007  -0.00006   0.00261
   D61       -3.11962   0.00003   0.00000  -0.00003  -0.00003  -3.11965
   D62       -0.00561   0.00028   0.00000   0.00093   0.00093  -0.00468
   D63        3.13183   0.00068   0.00000   0.00173   0.00170   3.13353
   D64        3.11660   0.00020   0.00000   0.00099   0.00100   3.11760
   D65       -0.02915   0.00061   0.00000   0.00179   0.00177  -0.02738
         Item               Value     Threshold  Converged?
 Maximum Force            0.356460     0.000450     NO 
 RMS     Force            0.034594     0.000300     NO 
 Maximum Displacement     0.511110     0.001800     NO 
 RMS     Displacement     0.128244     0.001200     NO 
 Predicted change in Energy=-7.163208D-02
 GradGradGradGradGradGradGradGradGradGradGradGradGradGradGradGradGradGrad

                          Input orientation:                          
 ---------------------------------------------------------------------
 Center     Atomic      Atomic             Coordinates (Angstroms)
 Number     Number       Type             X           Y           Z
 ---------------------------------------------------------------------
      1          6           0        0.318745   -1.083301   -0.485506
      2          7           0        0.943421   -2.174474   -1.064728
      3          1           0        1.923618   -2.109492   -1.334521
      4          1           0        0.436996   -3.042511   -1.225828
      5          7           0        1.040576    0.040184   -0.297449
      6          6           0        0.473704    1.150047    0.271166
      7          8           0        1.125488    2.187710    0.447151
      8          7           0       -0.866526    1.092800    0.648484
      9          6           0       -1.612943   -0.034224    0.466361
     10          1           0       -1.295164    1.924471    1.073976
     11          6           0       -1.042631   -1.151790   -0.104067
     12          1           0       -2.650854   -0.040331    0.772714
     13          1           0       -1.629506   -2.049514   -0.251681
     14          6           0        5.136453   -0.033132   -1.236705
     15          8           0        4.860812   -0.224943   -2.353069
     16          7           0        4.241103    0.558391   -0.351095
     17          6           0        4.501838    0.751343    0.979218
     18          1           0        3.329793    0.812224   -0.710896
     19          7           0        3.465297    1.223197    1.794194
     20          1           0        2.857313    1.924853    1.287970
     21          1           0        3.855649    1.656920    2.667457
     22          7           0        5.670808    0.434895    1.542074
     23          6           0        6.596816   -0.117823    0.723911
     24          6           0        6.379405   -0.387653   -0.634022
     25          7           0        7.463102   -1.030960   -1.153843
     26          6           0        8.340550   -1.162902   -0.147209
     27          7           0        7.826376   -0.615957    1.000659
     28          1           0        9.316677   -1.615981   -0.232452
     29          1           0        8.277676   -0.587535    1.902180
 ---------------------------------------------------------------------
                    Distance matrix (angstroms):
                    1          2          3          4          5
     1  C    0.000000
     2  N    1.384333   0.000000
     3  H    2.085549   1.018723   0.000000
     4  H    2.097753   1.017796   1.758517   0.000000
     5  N    1.348563   2.345819   2.544876   3.275547   0.000000
     6  C    2.363135   3.613542   3.912171   4.451953   1.369840
     7  O    3.495740   4.620344   4.719885   5.534266   2.274535
     8  N    2.725108   4.109268   4.687418   4.723665   2.374832
     9  C    2.395419   3.668774   4.478525   4.014417   2.762264
    10  H    3.752783   5.136796   5.695110   5.741114   3.299549
    11  C    1.415461   2.431698   3.351096   2.649994   2.407893
    12  H    3.389605   4.566134   5.444967   4.747850   3.844267
    13  H    2.187218   2.701225   3.714948   2.491072   3.390910
    14  C    4.987732   4.711310   3.826637   5.580446   4.202831
    15  O    4.985473   4.561408   3.635392   5.364654   4.346271
    16  N    4.254188   4.341950   3.668169   5.310639   3.242652
    17  C    4.796833   5.039886   4.492770   5.981513   3.757122
    18  H    3.565141   3.839314   3.301918   4.846897   2.451020
    19  N    4.518600   5.106609   4.824152   6.040480   3.413760
    20  H    4.317237   5.099280   4.901550   6.070571   3.060403
    21  H    5.473543   6.090144   5.825327   6.994963   4.396492
    22  N    5.921197   5.996032   5.365644   6.866325   4.997869
    23  C    6.465989   6.276138   5.481119   7.092155   5.651544
    24  C    6.102261   5.738306   4.827988   6.535345   5.366510
    25  N    7.175741   6.619804   5.646393   7.308740   6.567314
    26  C    8.029330   7.522143   6.594146   8.195274   7.399974
    27  N    7.667569   7.353221   6.521216   8.090015   6.939934
    28  H    9.017237   8.433031   7.491023   9.048233   8.440436
    29  H    8.324146   8.069213   7.291545   8.791336   7.589994
                    6          7          8          9         10
     6  C    0.000000
     7  O    1.237958   0.000000
     8  N    1.393507   2.281992   0.000000
     9  C    2.407217   3.526524   1.363998   0.000000
    10  H    2.091203   2.514312   1.027838   2.075251   0.000000
    11  C    2.781821   4.019558   2.373927   1.378259   3.303777
    12  H    3.381037   4.396695   2.117368   1.082196   2.406056
    13  H    3.864460   5.102198   3.356571   2.139450   4.202583
    14  C    5.041312   4.884194   6.391981   6.960948   7.108949
    15  O    5.293764   5.254976   6.599104   7.063644   7.366184
    16  N    3.864009   3.605404   5.231886   5.940479   5.877692
    17  C    4.109278   3.707558   5.389370   6.186331   5.915272
    18  H    3.039049   2.844643   4.419924   5.151024   5.080659
    19  N    3.357766   2.866969   4.482672   5.397478   4.865438
    20  H    2.704775   1.943010   3.868881   4.949366   4.157988
    21  H    4.175726   3.558831   5.166568   6.132724   5.398300
    22  N    5.397827   4.993110   6.630843   7.377687   7.138818
    23  C    6.269368   5.943695   7.561268   8.214223   8.159464
    24  C    6.169376   5.950217   7.506004   8.075481   8.195255
    25  N    7.459165   7.286177   8.783020   9.273249   9.508153
    26  C    8.210484   7.977280   9.512706  10.036056  10.191671
    27  N    7.596888   7.284834   8.866252   9.472309   9.468983
    28  H    9.279155   9.056793  10.574080  11.065573  11.262892
    29  H    8.159741   7.808513   9.381455  10.009599   9.931533
                   11         12         13         14         15
    11  C    0.000000
    12  H    2.142538   0.000000
    13  H    1.082645   2.475752   0.000000
    14  C    6.380858   8.042386   7.128413   0.000000
    15  O    6.384958   8.138165   7.061807   1.165778   0.000000
    16  N    5.559100   7.008602   6.424571   1.391351   2.237310
    17  C    5.961255   7.199333   6.852247   2.434842   3.490865
    18  H    4.831530   6.220618   5.744134   2.062795   2.473150
    19  N    5.437404   6.328288   6.391655   3.682047   4.609161
    20  H    5.158785   5.870890   6.188511   3.924560   4.678975
    21  H    6.289940   6.986079   7.235050   4.442883   5.455038
    22  N    7.092081   8.370652   7.917350   2.868134   4.032818
    23  C    7.753437   9.248123   8.506208   2.446190   3.534543
    24  C    7.480065   9.145771   8.188445   1.426128   2.299505
    25  N    8.571121  10.343359   9.193850   2.532947   2.976528
    26  C    9.383287  11.086812  10.009946   3.567859   4.225419
    27  N    8.953592  10.495506   9.645576   3.546994   4.493879
    28  H   10.370497  12.112590  10.954782   4.581289   5.127059
    29  H    9.550472  11.000359  10.243474   4.475180   5.469330
                   16         17         18         19         20
    16  N    0.000000
    17  C    1.369287   0.000000
    18  H    1.012114   2.057640   0.000000
    19  N    2.376153   1.400446   2.542191   0.000000
    20  H    2.543350   2.043750   2.335947   1.057463   0.000000
    21  H    3.235273   2.021825   3.521832   1.050276   1.723788
    22  N    2.375583   1.335454   3.270871   2.355688   3.193790
    23  C    2.676244   2.282447   3.687424   3.570749   4.298205
    24  C    2.355289   2.724907   3.278071   4.121056   4.631077
    25  N    3.681266   4.061483   4.547282   5.454777   5.992710
    26  C    4.450830   4.434962   5.415400   5.764600   6.454445
    27  N    4.007556   3.594791   5.018802   4.799083   5.588367
    28  H    5.522990   5.500459   6.478261   6.812259   7.521474
    29  H    4.762805   4.111132   5.767931   5.142898   6.005803
                   21         22         23         24         25
    21  H    0.000000
    22  N    2.460616   0.000000
    23  C    3.800142   1.353654   0.000000
    24  C    4.631349   2.431891   1.401449   0.000000
    25  N    5.902605   3.553733   2.260583   1.363252   0.000000
    26  C    5.999006   3.540361   2.211708   2.164275   1.341878
    27  N    4.869379   2.458433   1.355191   2.195001   2.223977
    28  H    6.996011   4.543941   3.249116   3.208989   2.151035
    29  H    5.017723   2.823260   2.105763   3.174225   3.193655
                   26         27         28         29
    26  C    0.000000
    27  N    1.371541   0.000000
    28  H    1.079523   2.177524   0.000000
    29  H    2.129552   1.008573   2.587253   0.000000
 Stoichiometry    C9H10N8O2
 Framework group  C1[X(C9H10N8O2)]
 Deg. of freedom    81
 Full point group                 C1      NOp   1
 Largest Abelian subgroup         C1      NOp   1
 Largest concise Abelian subgroup C1      NOp   1
                         Standard orientation:                         
 ---------------------------------------------------------------------
 Center     Atomic      Atomic             Coordinates (Angstroms)
 Number     Number       Type             X           Y           Z
 ---------------------------------------------------------------------
      1          6           0       -2.937390    1.311736   -0.454638
      2          7           0       -2.226558    2.460404   -0.757386
      3          1           0       -1.247845    2.534054   -0.484453
      4          1           0       -2.668034    3.234366   -1.249312
      5          7           0       -2.299371    0.319689    0.199120
      6          6           0       -2.953627   -0.839062    0.524246
      7          8           0       -2.379261   -1.755929    1.125908
      8          7           0       -4.294198   -0.968498    0.166505
      9          6           0       -4.956616    0.023658   -0.494796
     10          1           0       -4.788295   -1.836146    0.410448
     11          6           0       -4.298356    1.189025   -0.823751
     12          1           0       -5.997739   -0.114041   -0.756044
     13          1           0       -4.818290    1.980563   -1.348400
     14          6           0        1.810343    0.749516    0.966776
     15          8           0        1.571940    1.670041    1.641192
     16          7           0        0.857875   -0.227868    0.695885
     17          6           0        1.076885   -1.294525   -0.134309
     18          1           0       -0.061187   -0.107301    1.102288
     19          7           0       -0.006627   -2.127474   -0.440002
     20          1           0       -0.651210   -2.251999    0.388993
     21          1           0        0.334440   -3.065085   -0.768085
     22          7           0        2.253057   -1.525106   -0.723281
     23          6           0        3.232006   -0.624029   -0.474089
     24          6           0        3.062118    0.514585    0.325133
     25          7           0        4.198433    1.267319    0.299897
     26          6           0        5.061818    0.618127   -0.496188
     27          7           0        4.487169   -0.530869   -0.976515
     28          1           0        6.068607    0.942452   -0.711962
     29          1           0        4.916576   -1.197134   -1.600148
 ---------------------------------------------------------------------
 Rotational constants (GHZ):      0.8546725      0.1826623      0.1650688
 Standard basis: 6-31G (6D, 7F)
 There are   191 symmetry adapted basis functions of A   symmetry.
 Integral buffers will be    131072 words long.
 Raffenetti 2 integral format.
 Two-electron integral symmetry is turned on.
   191 basis functions,   458 primitive gaussians,   191 cartesian basis functions
    68 alpha electrons       68 beta electrons
       nuclear repulsion energy      1370.3171707986 Hartrees.
 NAtoms=   29 NActive=   29 NUniq=   29 SFac= 7.50D-01 NAtFMM=   80 NAOKFM=F Big=F
 One-electron integrals computed using PRISM.
 NBasis=   191 RedAO= T  NBF=   191
 NBsUse=   191 1.00D-06 NBFU=   191
 Initial guess read from the read-write file.
 B after Tr=     0.000000    0.000000    0.000000
         Rot=    1.000000    0.000000    0.000000    0.000000 Ang=   0.00 deg.
[...]
   A43        2.18253   0.00235   0.00061   0.00000   0.00061   2.18314
   A44        2.14661  -0.00015  -0.00160   0.00000  -0.00160   2.14501
   A45        1.87212  -0.00212  -0.00092   0.00000  -0.00092   1.87119
   A46        2.18955   0.00048   0.00058   0.00000   0.00058   2.19013
   A47        2.22151   0.00164   0.00034   0.00000   0.00034   2.22185
    D1        0.00022   0.01047  -0.00926   0.00000  -0.00926  -0.00903
    D2       -3.14121  -0.00111   0.00148   0.00000   0.00148  -3.13973
    D3        3.13630   0.00893  -0.00940   0.00000  -0.00940   3.12690
    D4       -0.00514  -0.00265   0.00133   0.00000   0.00133  -0.00380
    D5        3.13228  -0.00530   0.00174   0.00000   0.00174   3.13402
    D6       -0.00379  -0.00360   0.00188   0.00000   0.00188  -0.00191
    D7       -3.13140   0.00293   0.00131   0.00000   0.00130  -3.13009
    D8        0.00615   0.00203  -0.00014   0.00000  -0.00014   0.00601
    D9        0.00440   0.00134   0.00113   0.00000   0.00113   0.00553
   D10       -3.14123   0.00044  -0.00032   0.00000  -0.00032  -3.14156
   D11       -3.11165   0.01996  -0.00588   0.00000  -0.00588  -3.11753
   D12       -0.00219   0.00258  -0.00385   0.00000  -0.00385  -0.00604
   D13       -0.90915  -0.02293  -0.00716   0.00000  -0.00716  -0.91631
   D14        2.26591  -0.00654  -0.00915   0.00000  -0.00915   2.25676
   D15        0.00781   0.00077   0.00303   0.00000   0.00303   0.01084
   D16       -3.13289   0.00290   0.00091   0.00000   0.00091  -3.13198
   D17        3.11755  -0.01277   0.00494   0.00000   0.00494   3.12249
   D18       -0.02314  -0.01063   0.00282   0.00000   0.00282  -0.02032
   D19       -0.61780   0.09410   0.12785   0.00000   0.12785  -0.48994
   D20       -0.00728  -0.00302  -0.00014   0.00000  -0.00014  -0.00742
   D21        3.13951   0.00010  -0.00115   0.00000  -0.00115   3.13836
   D22        3.13338  -0.00525   0.00208   0.00000   0.00208   3.13546
   D23       -0.00302  -0.00213   0.00107   0.00000   0.00107  -0.00195
   D24        0.00112   0.00188  -0.00192   0.00000  -0.00192  -0.00081
   D25       -3.13649   0.00277  -0.00049   0.00000  -0.00049  -3.13698
   D26        3.13726  -0.00140  -0.00088   0.00000  -0.00088   3.13638
   D27       -0.00034  -0.00051   0.00055   0.00000   0.00055   0.00021
   D28        3.05394   0.00753   0.00024   0.00000   0.00024   3.05418
   D29        0.02776  -0.00182  -0.00103   0.00000  -0.00103   0.02673
   D30       -0.05582   0.00473   0.00204   0.00000   0.00204  -0.05378
   D31       -3.08200  -0.00462   0.00077   0.00000   0.00077  -3.08123
   D32       -3.08995  -0.00717  -0.00056   0.00000  -0.00057  -3.09052
   D33       -0.00691  -0.00433  -0.00112   0.00000  -0.00112  -0.00804
   D34        0.01612  -0.00305  -0.00287   0.00000  -0.00288   0.01324
   D35        3.09916  -0.00021  -0.00343   0.00000  -0.00343   3.09573
   D36       -2.97777  -0.01083  -0.00194   0.00000  -0.00194  -2.97971
   D37        0.05299  -0.00171   0.00001   0.00000   0.00000   0.05300
   D38        0.04551  -0.00171  -0.00074   0.00000  -0.00074   0.04477
   D39        3.07627   0.00741   0.00120   0.00000   0.00120   3.07748
   D40       -0.68802   0.01482  -0.00495   0.00000  -0.00496  -0.69297
   D41       -2.97012   0.01872   0.02854   0.00000   0.02855  -2.94158
   D42        2.56082   0.00186  -0.00667   0.00000  -0.00667   2.55415
   D43        0.27871   0.00576   0.02682   0.00000   0.02683   0.30554
   D44       -0.00276  -0.00415  -0.00108   0.00000  -0.00108  -0.00384
   D45        3.02314   0.01661   0.00063   0.00000   0.00062   3.02377
   D46        1.62192   0.11232   0.08926   0.00000   0.08928   1.71120
   D47       -2.35550   0.07925   0.05906   0.00000   0.05904  -2.29645
   D48       -0.03798   0.00524  -0.00003   0.00000  -0.00003  -0.03801
   D49       -3.08901   0.00083   0.00315   0.00000   0.00315  -3.08586
   D50        0.03060  -0.00175   0.00219   0.00000   0.00219   0.03279
   D51       -3.06296  -0.00417   0.00267   0.00000   0.00266  -3.06030
   D52        3.09740   0.00189  -0.00073   0.00000  -0.00073   3.09667
   D53        0.00384  -0.00053  -0.00026   0.00000  -0.00026   0.00358
   D54        3.06748   0.00318  -0.00184   0.00000  -0.00184   3.06563
   D55       -0.06930   0.00264  -0.00192   0.00000  -0.00192  -0.07122
   D56        0.00007  -0.00005   0.00039   0.00000   0.00040   0.00046
   D57       -3.13671  -0.00059   0.00032   0.00000   0.00032  -3.13639
   D58       -3.09323  -0.00164   0.00057   0.00000   0.00057  -3.09267
   D59       -0.00628   0.00091   0.00000   0.00000   0.00000  -0.00628
   D60        0.00635  -0.00096   0.00026   0.00000   0.00026   0.00661
   D61       -3.12082  -0.00022   0.00049   0.00000   0.00049  -3.12033
   D62       -0.00417   0.00065  -0.00044   0.00000  -0.00044  -0.00461
   D63        3.13249   0.00120  -0.00035   0.00000  -0.00036   3.13214
   D64        3.12334  -0.00005  -0.00063   0.00000  -0.00063   3.12270
   D65       -0.02318   0.00050  -0.00055   0.00000  -0.00055  -0.02374
         Item               Value     Threshold  Converged?
 Maximum Force            0.224755     0.000450     NO 
 RMS     Force            0.033382     0.000300     NO 
 Maximum Displacement     0.645786     0.001800     NO 
 RMS     Displacement     0.202791     0.001200     NO 
 Predicted change in Energy=-4.452881D-03
 GradGradGradGradGradGradGradGradGradGradGradGradGradGradGradGradGradGrad

                          Input orientation:                          
 ---------------------------------------------------------------------
 Center     Atomic      Atomic             Coordinates (Angstroms)
 Number     Number       Type             X           Y           Z
 ---------------------------------------------------------------------
      1          6           0        0.526631   -0.837237   -0.788192
      2          7           0        1.212192   -1.647616   -1.612235
      3          1           0        2.116750   -1.342509   -1.954579
      4          1           0        0.848639   -2.536587   -1.901803
      5          7           0        1.111339    0.322643   -0.473988
      6          6           0        0.503540    1.236303    0.352608
      7          8           0        1.037970    2.336927    0.629495
      8          7           0       -0.775719    0.893198    0.849690
      9          6           0       -1.386925   -0.295738    0.540941
     10          1           0       -1.219618    1.569861    1.447610
     11          6           0       -0.773434   -1.196767   -0.276208
     12          1           0       -2.364494   -0.474282    0.969274
     13          1           0       -1.250964   -2.133846   -0.527214
     14          6           0        4.708372   -0.646337   -0.884394
     15          8           0        4.121696   -1.224617   -1.797964
     16          7           0        4.012663    0.290881   -0.064733
     17          6           0        4.515946    0.935415    1.047752
     18          1           0        3.018277    0.410256   -0.284459
     19          7           0        3.596590    1.645545    1.795702
     20          1           0        2.870906    2.178567    1.305264
     21          1           0        4.035064    2.239893    2.478850
     22          7           0        5.764431    0.798452    1.468066
     23          6           0        6.497974   -0.048334    0.690672
     24          6           0        6.071740   -0.785166   -0.427178
     25          7           0        7.088370   -1.615738   -0.889626
     26          6           0        8.112484   -1.385413   -0.078899
     27          7           0        7.801442   -0.441468    0.901971
     28          1           0        9.080166   -1.848586   -0.158144
     29          1           0        8.402564   -0.103187    1.636165
 ---------------------------------------------------------------------
                    Distance matrix (angstroms):
                    1          2          3          4          5
     1  C    0.000000
     2  N    1.343783   0.000000
     3  H    2.035740   1.014158   0.000000
     4  H    2.057088   1.003140   1.742617   0.000000
     5  N    1.336387   2.277652   2.444531   3.206691   0.000000
     6  C    2.366755   3.560868   3.817831   4.408647   1.373847
     7  O    3.513776   4.575181   4.623793   5.494948   2.297911
     8  N    2.715360   4.058152   4.607461   4.687503   2.374583
     9  C    2.391968   3.635814   4.427086   3.998268   2.766550
    10  H    3.720526   5.062460   5.584635   5.688512   3.268249
    11  C    1.442761   2.435353   3.345346   2.658721   2.429011
    12  H    3.402797   4.564382   5.420728   4.777071   3.847013
    13  H    2.215659   2.735110   3.742337   2.541659   3.408467
    14  C    4.187202   3.708853   2.889024   4.416526   3.747799
    15  O    3.754224   2.945953   2.014506   3.527740   3.634443
    16  N    3.734764   3.741012   3.135916   4.623900   2.930218
    17  C    4.735781   4.966122   4.467557   5.848402   3.779223
    18  H    2.831657   3.042986   2.583454   4.000876   1.918335
    19  N    4.718619   5.305119   5.018267   6.221977   3.616356
    20  H    4.355831   5.089480   4.857294   6.050415   3.115488
    21  H    5.696613   6.310175   6.014053   7.222063   4.576382
    22  N    5.933020   6.016177   5.440936   6.829605   5.064507
    23  C    6.202125   5.983359   5.278955   6.695321   5.523576
    24  C    5.557092   5.075765   4.276158   5.702874   5.082815
    25  N    6.608538   5.920528   5.091736   6.388012   6.297219
    26  C    7.638637   7.073465   6.282424   7.577046   7.217312
    27  N    7.479048   7.155015   6.425533   7.784095   6.872744
    28  H    8.636130   8.003736   7.209192   8.442258   8.265361
    29  H    8.273250   8.039827   7.344442   8.689099   7.602371
                    6          7          8          9         10
     6  C    0.000000
     7  O    1.254454   0.000000
     8  N    1.414678   2.328584   0.000000
     9  C    2.440590   3.580347   1.372031   0.000000
    10  H    2.068711   2.520794   1.006194   2.080985   0.000000
    11  C    2.818848   4.072895   2.373944   1.362335   3.290115
    12  H    3.395880   4.426636   2.099646   1.082122   2.391248
    13  H    3.900036   5.154125   3.359274   2.130277   4.197423
    14  C    4.770232   4.966243   5.954197   6.269541   6.744690
    15  O    4.875668   5.299671   5.956499   6.056253   6.846349
    16  N    3.658133   3.676554   4.911980   5.465026   5.594616
    17  C    4.083278   3.772995   5.295538   6.051155   5.784384
    18  H    2.722519   2.910153   3.989226   4.537126   4.722764
    19  N    3.437580   2.895614   4.536303   5.493489   4.829363
    20  H    2.720264   1.959948   3.893275   4.983523   4.138015
    21  H    4.242613   3.523082   5.254653   6.291493   5.396674
    22  N    5.395640   5.040788   6.570002   7.293744   7.026552
    23  C    6.139855   5.958595   7.336101   7.890201   7.921663
    24  C    5.974885   6.016881   7.164844   7.537140   7.888275
    25  N    7.282669   7.385027   8.435868   8.695949   9.199639
    26  C    8.059506   8.025359   9.222500   9.581773   9.907169
    27  N    7.508401   7.316985   8.680538   9.196611   9.258654
    28  H    9.128851   9.100319  10.279668  10.604718  10.970404
    29  H    8.113959   7.823349   9.265646   9.852446   9.768369
                   11         12         13         14         15
    11  C    0.000000
    12  H    2.145852   0.000000
    13  H    1.081275   2.496714   0.000000
    14  C    5.542839   7.313762   6.152556   0.000000
    15  O    5.126287   7.091634   5.595264   1.230125   0.000000
    16  N    5.016427   6.505596   5.813687   1.426265   2.304932
    17  C    5.854623   7.023807   6.719980   2.504426   3.594338
    18  H    4.118211   5.597184   4.975721   2.081522   2.486170
    19  N    5.609693   6.380531   6.571036   3.697525   4.629038
    20  H    5.212979   5.878768   6.240568   4.018826   4.772437
    21  H    6.520938   7.113362   7.490535   4.482753   5.504677
    22  N    7.054578   8.243062   7.860997   2.955798   4.178317
    23  C    7.424765   8.877072   8.116566   2.457868   3.636433
    24  C    6.859199   8.556680   7.446538   1.444677   2.423807
    25  N    7.896820   9.701292   8.363268   2.569855   3.127172
    26  C    8.890110  10.568628   9.404004   3.575337   4.348267
    27  N    8.688330  10.166212   9.319483   3.577730   4.630713
    28  H    9.875841  11.581884  10.341655   4.591887   5.259731
    29  H    9.436738  10.794073  10.099227   4.505029   5.601489
                   16         17         18         19         20
    16  N    0.000000
    17  C    1.380702   0.000000
    18  H    1.025346   2.072098   0.000000
    19  N    2.338685   1.381641   2.487459   0.000000
    20  H    2.596893   2.077955   2.382407   1.025309   0.000000
    21  H    3.204522   1.995233   3.466599   1.006082   1.654185
    22  N    2.382392   1.324438   3.280763   2.350414   3.209939
    23  C    2.619633   2.241362   3.642730   3.536714   4.300283
    24  C    2.351391   2.748874   3.282231   4.120184   4.693655
    25  N    3.711552   4.108427   4.586560   5.480828   6.082868
    26  C    4.429300   4.426135   5.405334   5.752751   6.487835
    27  N    3.978153   3.565325   5.001172   4.778615   5.597983
    28  H    5.501421   5.480597   6.470303   6.789409   7.544165
    29  H    4.724360   4.065799   5.739597   5.116728   5.992924
                   21         22         23         24         25
    21  H    0.000000
    22  N    2.467822   0.000000
    23  C    3.807819   1.363625   0.000000
    24  C    4.663049   2.488821   1.405057   0.000000
    25  N    5.961140   3.624891   2.302751   1.391849   0.000000
    26  C    6.025801   3.560298   2.233084   2.155512   1.326325
    27  N    4.884858   2.450975   1.377762   2.208310   2.257698
    28  H    7.008741   4.543728   3.260232   3.202166   2.134604
    29  H    5.027444   2.793020   2.127070   3.186726   3.224056
                   26         27         28         29
    26  C    0.000000
    27  N    1.396383   0.000000
    28  H    1.075740   2.176916   0.000000
    29  H    2.160948   1.007384   2.593281   0.000000
 Stoichiometry    C9H10N8O2
 Framework group  C1[X(C9H10N8O2)]
 Deg. of freedom    81
 Full point group                 C1      NOp   1
 Largest Abelian subgroup         C1      NOp   1
 Largest concise Abelian subgroup C1      NOp   1
                         Standard orientation:                         
 ---------------------------------------------------------------------
 Center     Atomic      Atomic             Coordinates (Angstroms)
 Number     Number       Type             X           Y           Z
 ---------------------------------------------------------------------
      1          6           0       -2.681357   -1.335749    0.061292
      2          7           0       -1.923192   -2.434198   -0.094746
      3          1           0       -1.059746   -2.359695   -0.621459
      4          1           0       -2.194009   -3.321499    0.286888
      5          7           0       -2.218971   -0.211311   -0.493479
      6          6           0       -2.910693    0.972620   -0.408141
      7          8           0       -2.492456    2.024300   -0.949159
      8          7           0       -4.141000    0.942525    0.289537
      9          6           0       -4.626606   -0.202288    0.869245
     10          1           0       -4.647246    1.810539    0.341419
     11          6           0       -3.930453   -1.370108    0.782497
     12          1           0       -5.575065   -0.130501    1.385249
     13          1           0       -4.309097   -2.277080    1.233258
     14          6           0        1.455523   -0.948028   -0.456923
     15          8           0        0.923146   -2.022105   -0.732855
     16          7           0        0.673824    0.242790   -0.385292
     17          6           0        1.118480    1.490156    0.005473
     18          1           0       -0.329973    0.117592   -0.552774
     19          7           0        0.137587    2.446218    0.186376
     20          1           0       -0.645697    2.477687   -0.474481
     21          1           0        0.518361    3.371873    0.288231
     22          7           0        2.379012    1.750983    0.317190
     23          6           0        3.189248    0.658814    0.216407
     24          6           0        2.830893   -0.656231   -0.124800
     25          7           0        3.924381   -1.510764   -0.018485
     26          6           0        4.927334   -0.734770    0.370174
     27          7           0        4.529196    0.594030    0.530369
     28          1           0        5.937583   -1.065908    0.534377
     29          1           0        5.099303    1.371028    0.823754
 ---------------------------------------------------------------------
 Rotational constants (GHZ):      0.8258259      0.2064759      0.1724565
 Standard basis: 6-31G (6D, 7F)
 There are   191 symmetry adapted basis functions of A   symmetry.
 Integral buffers will be    131072 words long.
 Raffenetti 2 integral format.
 Two-electron integral symmetry is turned on.
   191 basis functions,   458 primitive gaussians,   191 cartesian basis functions
    68 alpha electrons       68 beta electrons
       nuclear repulsion energy      1389.4152573456 Hartrees.
 NAtoms=   29 NActive=   29 NUniq=   29 SFac= 7.50D-01 NAtFMM=   80 NAOKFM=F Big=F
 One-electron integrals computed using PRISM.
 NBasis=   191 RedAO= T  NBF=   191
 NBsUse=   191 1.00D-06 NBFU=   191
 Initial guess read from the read-write file.
 B after Tr=     0.000000    0.000000    0.000000
         Rot=    1.000000    0.000000    0.000000    0.000000 Ang=   0.00 deg.
 Initial guess orbital symmetries:
       Occupied  (A) (A) (A) (A) (A) (A) (A) (A) (A) (A) (A) (A)
                 (A) (A) (A) (A) (A) (A) (A) (A) (A) (A) (A) (A)
                 (A) (A) (A) (A) (A) (A) (A) (A) (A) (A) (A) (A)
                 (A) (A) (A) (A) (A) (A) (A) (A) (A) (A) (A) (A)
                 (A) (A) (A) (A) (A) (A) (A) (A) (A) (A) (A) (A)
                 (A) (A) (A) (A) (A) (A) (A) (A)
       Virtual   (A) (A) (A) (A) (A) (A) (A) (A) (A) (A) (A) (A)
                 (A) (A) (A) (A) (A) (A) (A) (A) (A) (A) (A) (A)
                 (A) (A) (A) (A) (A) (A) (A) (A) (A) (A) (A) (A)
                 (A) (A) (A) (A) (A) (A) (A) (A) (A) (A) (A) (A)
                 (A) (A) (A) (A) (A) (A) (A) (A) (A) (A) (A) (A)
                 (A) (A) (A) (A) (A) (A) (A) (A) (A) (A) (A) (A)
                 (A) (A) (A) (A) (A) (A) (A) (A) (A) (A) (A) (A)
                 (A) (A) (A) (A) (A) (A) (A) (A) (A) (A) (A) (A)
                 (A) (A) (A) (A) (A) (A) (A) (A) (A) (A) (A) (A)
                 (A) (A) (A) (A) (A) (A) (A) (A) (A) (A) (A) (A)
                 (A) (A) (A)
 Harris functional with IExCor=  402 diagonalized for initial guess.
 ExpMin= 1.61D-01 ExpMax= 5.48D+03 ExpMxC= 8.25D+02 IAcc=1 IRadAn=         1 AccDes= 0.00D+00
 HarFok:  IExCor=  402 AccDes= 0.00D+00 IRadAn=         1 IDoV= 1
 ScaDFX=  1.000000  1.000000  1.000000  1.000000
 FoFCou: FMM=F IPFlag=           0 FMFlag=      100000 FMFlg1=           0
         NFxFlg=           0 DoJE=T BraDBF=F KetDBF=T FulRan=T
         Omega=  0.000000  0.000000  1.000000  0.000000  0.000000 ICntrl=     500 IOpCl=  0
         NMat0=    1 NMatS0=    1 NMatT0=    0 NMatD0=    1 NMtDS0=    0 NMtDT0=    0
         I1Cent=           4 NGrid=           0.
 Petite list used in FoFCou.
 Requested convergence on RMS density matrix=1.00D-08 within 128 cycles.
 Requested convergence on MAX density matrix=1.00D-06.
 Requested convergence on             energy=1.00D-06.
 No special actions if energy rises.
 Keep R1 ints in memory in canonical form, NReq=172031014.
 Integral accuracy reduced to 1.0D-05 until final iterations.
 Initial convergence to 1.0D-05 achieved.  Increase integral accuracy.
