 Entering Gaussian System, Link 0=g09
 Input=chooh-pair-s-7.gjf
 Output=chooh-pair-s-7.log
 Initial command:
 /usr/g09/l1.exe /scratch/litao/gaussian/Gau-1030.inp -scrdir=/scratch/litao/gaussian/
 Entering Link 1 = /usr/g09/l1.exe PID=      1031.
  
 Copyright (c) 1988,1990,1992,1993,1995,1998,2003,2009, Gaussian, Inc.
                  All Rights Reserved.
  
 This is part of the Gaussian(R) 09 program.  It is based on
 the Gaussian(R) 03 system (copyright 2003, Gaussian, Inc.),
 the Gaussian(R) 98 system (copyright 1998, Gaussian, Inc.),
 the Gaussian(R) 94 system (copyright 1995, Gaussian, Inc.),
 the Gaussian 92(TM) system (copyright 1992, Gaussian, Inc.),
 the Gaussian 90(TM) system (copyright 1990, Gaussian, Inc.),
 the Gaussian 88(TM) system (copyright 1988, Gaussian, Inc.),
 the Gaussian 86(TM) system (copyright 1986, Carnegie Mellon
 University), and the Gaussian 82(TM) system (copyright 1983,
 Carnegie Mellon University). Gaussian is a federally registered
 trademark of Gaussian, Inc.
  
 This software contains proprietary and confidential information,
 including trade secrets, belonging to Gaussian, Inc.
  
 This software is provided under written license and may be
 used, copied, transmitted, or stored only in accord with that
 written license.
  
 The following legend is applicable only to US Government
 contracts under FAR:
  
                    RESTRICTED RIGHTS LEGEND
  
 Use, reproduction and disclosure by the US Government is
 subject to restrictions as set forth in subparagraphs (a)
 and (c) of the Commercial Computer Software - Restricted
 Rights clause in FAR 52.227-19.
  
 Gaussian, Inc.
 340 Quinnipiac St., Bldg. 40, Wallingford CT 06492
  
  
 ---------------------------------------------------------------
 Warning -- This program may not be used in any manner that
 competes with the business of Gaussian, Inc. or will provide
 assistance to any competitor of Gaussian, Inc.  The licensee
 of this program is prohibited from giving any competitor of
 Gaussian, Inc. access to this program.  By using this program,
 the user acknowledges that Gaussian, Inc. is engaged in the
 business of creating and licensing software in the field of
 computational chemistry and represents and warrants to the
 licensee that it is not a competitor of Gaussian, Inc. and that
 it will not use this program in any manner prohibited above.
 ---------------------------------------------------------------
  

 Cite this work as:
 Gaussian 09, Revision A.01,
 M. J. Frisch, G. W. Trucks, H. B. Schlegel, G. E. Scuseria, 
 M. A. Robb, J. R. Cheeseman, G. Scalmani, V. Barone, B. Mennucci, 
 G. A. Petersson, H. Nakatsuji, M. Caricato, X. Li, H. P. Hratchian, 
 A. F. Izmaylov, J. Bloino, G. Zheng, J. L. Sonnenberg, M. Hada, 
 M. Ehara, K. Toyota, R. Fukuda, J. Hasegawa, M. Ishida, T. Nakajima, 
 Y. Honda, O. Kitao, H. Nakai, T. Vreven, J. A. Montgomery, Jr., 
 J. E. Peralta, F. Ogliaro, M. Bearpark, J. J. Heyd, E. Brothers, 
 K. N. Kudin, V. N. Staroverov, R. Kobayashi, J. Normand, 
 K. Raghavachari, A. Rendell, J. C. Burant, S. S. Iyengar, J. Tomasi, 
 M. Cossi, N. Rega, J. M. Millam, M. Klene, J. E. Knox, J. B. Cross, 
 V. Bakken, C. Adamo, J. Jaramillo, R. Gomperts, R. E. Stratmann, 
 O. Yazyev, A. J. Austin, R. Cammi, C. Pomelli, J. W. Ochterski, 
 R. L. Martin, K. Morokuma, V. G. Zakrzewski, G. A. Voth, 
 P. Salvador, J. J. Dannenberg, S. Dapprich, A. D. Daniels, 
 O. Farkas, J. B. Foresman, J. V. Ortiz, J. Cioslowski, 
 and D. J. Fox, Gaussian, Inc., Wallingford CT, 2009.
 
 ******************************************
 Gaussian 09:  EM64L-G09RevA.01  8-May-2009
                12-May-2015 
 ******************************************
 %nprocshared=8
 Will use up to    8 processors via shared memory.
 %mem=8GB
 %chk=chooh-pair-s-7.chk
 ----------------
 #opt b3lyp/6-31g
 ----------------
 1/14=-1,18=20,19=15,26=3,38=1/1,3;
 2/9=110,12=2,17=6,18=5,40=1/2;
 3/5=1,6=6,11=2,16=1,25=1,30=1,71=1,74=-5/1,2,3;
 4//1;
 5/5=2,38=5/2;
 6/7=2,8=2,9=2,10=2,28=1/1;
 7//1,2,3,16;
 1/14=-1,18=20,19=15/3(2);
 2/9=110/2;
 99//99;
 2/9=110/2;
 3/5=1,6=6,11=2,16=1,25=1,30=1,71=1,74=-5/1,2,3;
 4/5=5,16=3/1;
 5/5=2,38=5/2;
 7//1,2,3,16;
 1/14=-1,18=20,19=15/3(-5);
 2/9=110/2;
 6/7=2,8=2,9=2,10=2,19=2,28=1/1;
 99/9=1/99;
 -------------------
 Title Card Required
 -------------------
 Symbolic Z-matrix:
 Charge =  0 Multiplicity = 1
 C                    -1.04315  -2.32686  -0.3458 
 O                    -1.2575   -1.17173   0.13768 
 O                    -0.81402  -3.40184   0.36344 
 H                    -1.05083  -2.47977  -1.42383 
 H                    -0.76199  -3.27186   1.3911 
 C                    -0.83472  -1.84933   3.41834 
 O                    -0.74309  -2.98397   2.90284 
 O                    -1.08358  -0.71457   2.77099 
 H                    -0.72794  -1.6979    4.49144 
 H                    -1.14731  -0.81496   1.76529 
 C                    -1.55492   0.25746  -2.85854 
 O                    -1.41124  -0.93404  -3.12729 
 O                    -1.52082   0.77023  -1.59479 
 H                    -1.72584   1.04285  -3.59746 
 H                    -1.37056   0.06459  -0.86741 
 C                    -1.17863   4.22503  -0.94791 
 O                     0.04807   4.09159  -1.09102 
 O                    -2.10119   3.26601  -1.02195 
 H                    -1.63364   5.19539  -0.74507 
 H                    -1.78113   2.32322  -1.20981 
 C                     2.20271   1.44315  -0.50028 
 O                     1.18959   0.93361   0.03462 
 O                     2.20911   2.60515  -1.14004 
 H                     3.17757   0.95559  -0.48164 
 H                     1.33171   3.10779  -1.14292 
 C                     2.82272  -1.77744   1.12959 
 O                     3.72175  -1.14379   0.56447 
 O                     1.53727  -1.37203   1.24215 
 H                     2.96945  -2.7501    1.60492 
 H                     1.37229  -0.46256   0.80872 
 C                     6.60679   0.20994  -0.18537 
 O                     5.72871   0.98807   0.15122 
 O                     6.46306  -1.10136   0.00263 
 H                     7.51744   0.59301  -0.64439 
 H                     5.62607  -1.29474   0.40986 
 

 GradGradGradGradGradGradGradGradGradGradGradGradGradGradGradGradGradGrad
 Berny optimization.
 Initialization pass.
                           ----------------------------
                           !    Initial Parameters    !
                           ! (Angstroms and Degrees)  !
 --------------------------                            --------------------------
 ! Name  Definition              Value          Derivative Info.                !
 --------------------------------------------------------------------------------
 ! R1    R(1,2)                  1.2704         estimate D2E/DX2                !
 ! R2    R(1,3)                  1.3081         estimate D2E/DX2                !
 ! R3    R(1,4)                  1.0888         estimate D2E/DX2                !
 ! R4    R(2,10)                 1.6699         estimate D2E/DX2                !
 ! R5    R(2,15)                 1.5973         estimate D2E/DX2                !
 ! R6    R(3,5)                  1.0372         estimate D2E/DX2                !
 ! R7    R(5,7)                  1.539          estimate D2E/DX2                !
 ! R8    R(6,7)                  1.2496         estimate D2E/DX2                !
 ! R9    R(6,8)                  1.3299         estimate D2E/DX2                !
 ! R10   R(6,9)                  1.089          estimate D2E/DX2                !
 ! R11   R(8,10)                 1.0127         estimate D2E/DX2                !
 ! R12   R(11,12)                1.2299         estimate D2E/DX2                !
 ! R13   R(11,13)                1.3642         estimate D2E/DX2                !
 ! R14   R(11,14)                1.0918         estimate D2E/DX2                !
 ! R15   R(13,15)                1.0245         estimate D2E/DX2                !
 ! R16   R(13,20)                1.621          estimate D2E/DX2                !
 ! R17   R(16,17)                1.2422         estimate D2E/DX2                !
 ! R18   R(16,18)                1.3328         estimate D2E/DX2                !
 ! R19   R(16,19)                1.0908         estimate D2E/DX2                !
 ! R20   R(17,25)                1.6181         estimate D2E/DX2                !
 ! R21   R(18,20)                1.0132         estimate D2E/DX2                !
 ! R22   R(21,22)                1.2539         estimate D2E/DX2                !
 ! R23   R(21,23)                1.3265         estimate D2E/DX2                !
 ! R24   R(21,24)                1.0901         estimate D2E/DX2                !
 ! R25   R(22,30)                1.6068         estimate D2E/DX2                !
 ! R26   R(23,25)                1.0112         estimate D2E/DX2                !
 ! R27   R(26,27)                1.2366         estimate D2E/DX2                !
 ! R28   R(26,28)                1.3526         estimate D2E/DX2                !
 ! R29   R(26,29)                1.0925         estimate D2E/DX2                !
 ! R30   R(27,35)                1.9165         estimate D2E/DX2                !
 ! R31   R(28,30)                1.0209         estimate D2E/DX2                !
 ! R32   R(31,32)                1.2206         estimate D2E/DX2                !
 ! R33   R(31,33)                1.3325         estimate D2E/DX2                !
 ! R34   R(31,34)                1.0894         estimate D2E/DX2                !
 ! R35   R(33,35)                0.9507         estimate D2E/DX2                !
 ! A1    A(2,1,3)              124.7795         estimate D2E/DX2                !
 ! A2    A(2,1,4)              120.2169         estimate D2E/DX2                !
 ! A3    A(3,1,4)              115.0011         estimate D2E/DX2                !
 ! A4    A(1,2,10)             123.6451         estimate D2E/DX2                !
 ! A5    A(1,2,15)             118.4388         estimate D2E/DX2                !
 ! A6    A(10,2,15)            116.911          estimate D2E/DX2                !
 ! A7    A(1,3,5)              116.2973         estimate D2E/DX2                !
 ! A8    A(7,6,8)              125.9917         estimate D2E/DX2                !
 ! A9    A(7,6,9)              121.7074         estimate D2E/DX2                !
 ! A10   A(8,6,9)              112.2942         estimate D2E/DX2                !
 ! A11   A(5,7,6)              125.0409         estimate D2E/DX2                !
 ! A12   A(6,8,10)             114.2421         estimate D2E/DX2                !
 ! A13   A(2,10,8)             173.3479         estimate D2E/DX2                !
 ! A14   A(12,11,13)           124.3085         estimate D2E/DX2                !
 ! A15   A(12,11,14)           124.5629         estimate D2E/DX2                !
 ! A16   A(13,11,14)           111.1287         estimate D2E/DX2                !
 ! A17   A(11,13,15)           113.7325         estimate D2E/DX2                !
 ! A18   A(11,13,20)           125.1746         estimate D2E/DX2                !
 ! A19   A(15,13,20)           120.984          estimate D2E/DX2                !
 ! A20   A(2,15,13)            171.9839         estimate D2E/DX2                !
 ! A21   A(17,16,18)           126.8604         estimate D2E/DX2                !
 ! A22   A(17,16,19)           121.9329         estimate D2E/DX2                !
 ! A23   A(18,16,19)           111.2052         estimate D2E/DX2                !
 ! A24   A(16,17,25)           148.4734         estimate D2E/DX2                !
 ! A25   A(16,18,20)           117.4642         estimate D2E/DX2                !
 ! A26   A(13,20,18)           170.4721         estimate D2E/DX2                !
 ! A27   A(22,21,23)           124.4463         estimate D2E/DX2                !
 ! A28   A(22,21,24)           122.2428         estimate D2E/DX2                !
 ! A29   A(23,21,24)           113.3107         estimate D2E/DX2                !
 ! A30   A(21,22,30)           117.8235         estimate D2E/DX2                !
 ! A31   A(21,23,25)           115.6346         estimate D2E/DX2                !
 ! A32   A(17,25,23)           172.0842         estimate D2E/DX2                !
 ! A33   A(27,26,28)           125.1276         estimate D2E/DX2                !
 ! A34   A(27,26,29)           123.8766         estimate D2E/DX2                !
 ! A35   A(28,26,29)           110.9955         estimate D2E/DX2                !
 ! A36   A(26,27,35)           135.9641         estimate D2E/DX2                !
 ! A37   A(26,28,30)           112.6609         estimate D2E/DX2                !
 ! A38   A(32,31,33)           120.7215         estimate D2E/DX2                !
 ! A39   A(32,31,34)           119.5646         estimate D2E/DX2                !
 ! A40   A(33,31,34)           119.7139         estimate D2E/DX2                !
 ! A41   A(31,33,35)           110.8292         estimate D2E/DX2                !
 ! A42   A(27,35,33)           153.296          estimate D2E/DX2                !
 ! A43   L(3,5,7,1,-1)         176.0829         estimate D2E/DX2                !
 ! A44   L(22,30,28,26,-1)     176.4602         estimate D2E/DX2                !
 ! A45   L(3,5,7,1,-2)         177.6214         estimate D2E/DX2                !
 ! A46   L(22,30,28,26,-2)     184.1519         estimate D2E/DX2                !
 ! D1    D(3,1,2,10)             5.612          estimate D2E/DX2                !
 ! D2    D(3,1,2,15)           173.7733         estimate D2E/DX2                !
 ! D3    D(4,1,2,10)          -174.9924         estimate D2E/DX2                !
 ! D4    D(4,1,2,15)            -6.8311         estimate D2E/DX2                !
 ! D5    D(2,1,3,5)             -3.1003         estimate D2E/DX2                !
 ! D6    D(4,1,3,5)            177.476          estimate D2E/DX2                !
 ! D7    D(1,2,10,8)           -15.6021         estimate D2E/DX2                !
 ! D8    D(15,2,10,8)          176.0698         estimate D2E/DX2                !
 ! D9    D(1,2,15,13)           42.2575         estimate D2E/DX2                !
 ! D10   D(10,2,15,13)        -148.7846         estimate D2E/DX2                !
 ! D11   D(1,3,7,6)             -4.2416         estimate D2E/DX2                !
 ! D12   D(8,6,7,5)              6.4628         estimate D2E/DX2                !
 ! D13   D(9,6,7,5)           -174.5537         estimate D2E/DX2                !
 ! D14   D(7,6,8,10)            -3.5309         estimate D2E/DX2                !
 ! D15   D(9,6,8,10)           177.4037         estimate D2E/DX2                !
 ! D16   D(6,8,10,2)            11.9332         estimate D2E/DX2                !
 ! D17   D(12,11,13,15)         -0.5373         estimate D2E/DX2                !
 ! D18   D(12,11,13,20)       -176.7572         estimate D2E/DX2                !
 ! D19   D(14,11,13,15)        179.4813         estimate D2E/DX2                !
 ! D20   D(14,11,13,20)          3.2614         estimate D2E/DX2                !
 ! D21   D(11,13,15,2)         -34.82           estimate D2E/DX2                !
 ! D22   D(20,13,15,2)         141.5761         estimate D2E/DX2                !
 ! D23   D(11,13,20,18)         66.2364         estimate D2E/DX2                !
 ! D24   D(15,13,20,18)       -109.7267         estimate D2E/DX2                !
 ! D25   D(18,16,17,25)        -16.338          estimate D2E/DX2                !
 ! D26   D(19,16,17,25)        164.1568         estimate D2E/DX2                !
 ! D27   D(17,16,18,20)          0.3239         estimate D2E/DX2                !
 ! D28   D(19,16,18,20)        179.8734         estimate D2E/DX2                !
 ! D29   D(16,17,25,23)       -155.7557         estimate D2E/DX2                !
 ! D30   D(16,18,20,13)       -158.4037         estimate D2E/DX2                !
 ! D31   D(23,21,22,30)       -178.1584         estimate D2E/DX2                !
 ! D32   D(24,21,22,30)          2.0372         estimate D2E/DX2                !
 ! D33   D(22,21,23,25)          2.8123         estimate D2E/DX2                !
 ! D34   D(24,21,23,25)       -177.3678         estimate D2E/DX2                !
 ! D35   D(21,22,28,26)         -0.9186         estimate D2E/DX2                !
 ! D36   D(21,23,25,17)        133.0743         estimate D2E/DX2                !
 ! D37   D(28,26,27,35)        170.6702         estimate D2E/DX2                !
 ! D38   D(29,26,27,35)         -9.498          estimate D2E/DX2                !
 ! D39   D(27,26,28,30)         -0.3577         estimate D2E/DX2                !
 ! D40   D(29,26,28,30)        179.7919         estimate D2E/DX2                !
 ! D41   D(26,27,35,33)        162.4663         estimate D2E/DX2                !
 ! D42   D(32,31,33,35)         -0.0002         estimate D2E/DX2                !
 ! D43   D(34,31,33,35)        179.9998         estimate D2E/DX2                !
 ! D44   D(31,33,35,27)         48.8096         estimate D2E/DX2                !
 --------------------------------------------------------------------------------
 Trust Radius=3.00D-01 FncErr=1.00D-07 GrdErr=1.00D-06
 Number of steps in this run= 135 maximum allowed number of steps= 210.
 GradGradGradGradGradGradGradGradGradGradGradGradGradGradGradGradGradGrad

                          Input orientation:                          
 ---------------------------------------------------------------------
 Center     Atomic      Atomic             Coordinates (Angstroms)
 Number     Number       Type             X           Y           Z
 ---------------------------------------------------------------------
      1          6           0       -1.043150   -2.326860   -0.345800
      2          8           0       -1.257500   -1.171730    0.137678
      3          8           0       -0.814024   -3.401840    0.363439
      4          1           0       -1.050830   -2.479770   -1.423830
      5          1           0       -0.761986   -3.271860    1.391100
      6          6           0       -0.834724   -1.849330    3.418340
      7          8           0       -0.743086   -2.983970    2.902840
      8          8           0       -1.083580   -0.714574    2.770990
      9          1           0       -0.727935   -1.697900    4.491440
     10          1           0       -1.147310   -0.814957    1.765290
     11          6           0       -1.554920    0.257457   -2.858540
     12          8           0       -1.411240   -0.934042   -3.127290
     13          8           0       -1.520820    0.770229   -1.594790
     14          1           0       -1.725840    1.042850   -3.597460
     15          1           0       -1.370560    0.064585   -0.867412
     16          6           0       -1.178630    4.225030   -0.947912
     17          8           0        0.048074    4.091590   -1.091020
     18          8           0       -2.101190    3.266010   -1.021950
     19          1           0       -1.633640    5.195390   -0.745068
     20          1           0       -1.781130    2.323220   -1.209810
     21          6           0        2.202710    1.443150   -0.500284
     22          8           0        1.189590    0.933606    0.034616
     23          8           0        2.209110    2.605150   -1.140040
     24          1           0        3.177570    0.955591   -0.481642
     25          1           0        1.331710    3.107790   -1.142920
     26          6           0        2.822720   -1.777440    1.129590
     27          8           0        3.721750   -1.143790    0.564474
     28          8           0        1.537270   -1.372030    1.242150
     29          1           0        2.969450   -2.750100    1.604920
     30          1           0        1.372290   -0.462562    0.808716
     31          6           0        6.606790    0.209943   -0.185371
     32          8           0        5.728710    0.988066    0.151223
     33          8           0        6.463060   -1.101360    0.002627
     34          1           0        7.517440    0.593007   -0.644385
     35          1           0        5.626070   -1.294740    0.409855
 ---------------------------------------------------------------------
                    Distance matrix (angstroms):
                    1          2          3          4          5
     1  C    0.000000
     2  O    1.270442   0.000000
     3  O    1.308090   2.284957   0.000000
     4  H    1.088848   2.047435   2.024999   0.000000
     5  H    1.997223   2.495425   1.037155   2.938481   0.000000
     6  C    3.800030   3.376481   3.426826   4.887818   2.477617
     7  O    3.327986   3.345886   2.574530   4.366806   1.539024
     8  O    3.509342   2.678352   3.618060   4.551209   2.923565
     9  H    4.888133   4.417300   4.466678   5.975450   3.477157
    10  H    2.598731   1.669895   2.961120   3.598805   2.514928
    11  C    3.640668   3.332920   4.931585   3.131279   5.580705
    12  O    3.132430   3.277216   4.316466   2.328293   5.128623
    13  O    3.373441   2.615719   4.662658   3.288254   5.082308
    14  H    4.732262   4.367489   6.022906   4.193943   6.665693
    15  H    2.469471   1.597330   3.720327   2.624037   4.074691
    16  C    6.580893   5.505429   7.747369   6.722884   7.864345
    17  O    6.553062   5.560284   7.681807   6.670916   7.812651
    18  O    5.732087   4.663699   6.930824   5.854806   7.096480
    19  H    7.555947   6.439017   8.707062   7.727125   8.775951
    20  H    4.786896   3.782141   6.015540   4.862906   6.253664
    21  C    4.977193   4.383794   5.772402   5.179552   5.882013
    22  O    3.969947   3.229754   4.787346   4.335629   4.830594
    23  O    5.960934   5.283443   6.890843   6.046830   7.055021
    24  H    5.348590   4.957711   5.969438   5.528905   6.074422
    25  H    5.984211   5.163161   7.017733   6.080809   7.176681
    26  C    4.174157   4.242519   4.056053   4.692293   3.892531
    27  O    4.993248   4.997586   5.070745   5.340011   5.031489
    28  O    3.176768   3.011763   3.228133   3.877215   2.986322
    29  H    4.481674   4.744592   4.034937   5.040740   3.773800
    30  H    3.262340   2.805175   3.690203   3.863276   3.575816
    31  C    8.061184   7.991273   8.271315   8.210206   8.301028
    32  O    7.556048   7.312457   7.881858   7.776171   7.862150
    33  O    7.613569   7.722062   7.640572   7.771315   7.670738
    34  H    9.049778   8.984737   9.294504   9.135904   9.361052
    35  H    6.790787   6.890047   6.776196   7.024791   6.758632
                    6          7          8          9         10
     6  C    0.000000
     7  O    1.249618   0.000000
     8  O    1.329911   2.298582   0.000000
     9  H    1.088981   2.043980   2.013296   0.000000
    10  H    1.974895   2.482345   1.012705   2.896093   0.000000
    11  C    6.660064   6.660287   5.732243   7.650460   4.764034
    12  O    6.634410   6.403991   5.911449   7.687355   4.901141
    13  O    5.697744   5.909954   4.632046   6.615325   3.733961
    14  H    7.640696   7.709409   6.637635   8.598711   5.704843
    15  H    4.724178   4.888989   3.731945   5.677730   2.784700
    16  C    7.488677   8.184600   6.183765   8.054240   5.723977
    17  O    7.510539   8.163357   6.268570   8.079867   5.801866
    18  O    6.891068   7.504044   5.591688   7.544780   5.033178
    19  H    8.221941   9.000125   6.898761   8.703951   6.531668
    20  H    6.302827   6.793945   5.055842   7.055698   4.370481
    21  C    5.951642   6.313348   5.114363   6.585756   4.631901
    22  O    4.826196   5.225835   3.920656   5.519512   3.393200
    23  O    7.063013   7.503239   6.095780   7.671769   5.603894
    24  H    6.259069   6.507411   5.614843   6.857516   5.185377
    25  H    7.076127   7.601480   5.980199   7.686534   5.476419
    26  C    4.315141   4.161142   4.368416   4.890349   4.134202
    27  O    5.422526   5.365536   5.305105   5.960520   5.025717
    28  O    3.254224   3.249041   3.104586   3.974321   2.791232
    29  H    4.309480   3.939824   4.682962   4.807263   4.551726
    30  H    3.688384   3.900983   3.153621   4.415819   2.718014
    31  C    8.520767   8.588295   8.290753   8.905651   8.061114
    32  O    7.861522   8.076671   7.494629   8.230441   7.289428
    33  O    8.092231   7.992747   8.047684   8.497983   7.817080
    34  H    9.603613   9.675426   9.346235   9.980539   9.103120
    35  H    7.148455   7.045184   7.136593   7.562754   6.924310
                   11         12         13         14         15
    11  C    0.000000
    12  O    1.229854   0.000000
    13  O    1.364244   2.294581   0.000000
    14  H    1.091814   2.056243   2.031512   0.000000
    15  H    2.008925   2.471024   1.024495   2.921710   0.000000
    16  C    4.419698   5.605339   3.531458   4.176819   4.165648
    17  O    4.516004   5.615422   3.707648   4.327104   4.275429
    18  O    3.566913   4.748571   2.625623   3.422949   3.287373
    19  H    5.371791   6.579847   4.507417   5.038673   5.139002
    20  H    2.652708   3.797803   1.621034   2.709848   2.321042
    21  C    4.592061   5.060913   3.938965   5.018590   3.847529
    22  O    4.044733   4.500008   3.166698   4.658717   2.850126
    23  O    4.757397   5.438932   4.181640   4.895255   4.398049
    24  H    5.341675   5.623819   4.832011   5.810281   4.650612
    25  H    4.404587   5.272372   3.715549   4.431406   4.079125
    26  C    6.261766   6.062901   5.725313   7.140619   4.996466
    27  O    6.443894   6.326192   5.984182   7.195785   5.426056
    28  O    5.388184   5.289381   4.689287   6.316752   3.869055
    29  H    7.031202   6.699427   6.541665   7.968499   5.733286
    30  H    4.747184   4.843808   3.958118   5.592769   3.257379
    31  C    8.588457   8.616983   8.267915   9.042611   8.007773
    32  O    7.914779   8.088389   7.460007   8.344216   7.231187
    33  O    8.620943   8.475198   8.354455   9.198714   7.967559
    34  H    9.344667   9.392445   9.089820   9.713971   8.906487
    35  H    8.041041   7.884493   7.704592   8.693301   7.240995
                   16         17         18         19         20
    16  C    0.000000
    17  O    1.242211   0.000000
    18  O    1.332786   2.303408   0.000000
    19  H    1.090770   2.041132   2.004439   0.000000
    20  H    2.012083   2.547004   1.013204   2.913263   0.000000
    21  C    4.401442   3.464918   4.703032   5.371853   4.141127
    22  O    4.172205   3.541607   4.169613   5.171203   3.507820
    23  O    3.760014   2.623354   4.362266   4.651029   4.000796
    24  H    5.466545   4.472089   5.787510   6.418180   5.195127
    25  H    2.754643   1.618109   3.438673   3.648241   3.210887
    26  C    7.507094   6.861143   7.369559   8.484919   6.594213
    27  O    7.424639   6.606494   7.474604   8.401209   6.741656
    28  O    6.595420   6.124747   6.314741   7.558751   5.538841
    29  H    8.507406   7.912727   8.294903   9.478486   7.498619
    30  H    5.618403   5.109094   5.414670   6.592593   4.666807
    31  C    8.792904   7.674903   9.266516   9.647416   8.710489
    32  O    7.706970   6.591256   8.238489   8.526964   7.748080
    33  O    9.363193   8.325553   9.667991  10.284195   9.009130
    34  H    9.428964   8.260206   9.990272  10.243746   9.475059
    35  H    8.866529   7.898051   9.086311   9.806071   8.401164
                   21         22         23         24         25
    21  C    0.000000
    22  O    1.253860   0.000000
    23  O    1.326489   2.283264   0.000000
    24  H    1.090144   2.054037   2.022980   0.000000
    25  H    1.985610   2.476664   1.011181   2.911434   0.000000
    26  C    3.662390   3.349008   4.973413   3.192404   5.590428
    27  O    3.183308   3.317854   4.387254   2.407881   5.167535
    28  O    3.376999   2.625829   4.684459   3.328643   5.079331
    29  H    4.754274   4.382174   6.065610   4.257840   6.674406
    30  H    2.456586   1.606828   3.729447   2.633480   4.069145
    31  C    4.584309   5.469748   5.097843   3.521834   6.094332
    32  O    3.614449   4.540944   4.082879   2.628667   5.049915
    33  O    4.987788   5.652574   5.756735   3.906406   6.734981
    34  H    5.384224   6.373283   5.698488   4.358030   6.695963
    35  H    4.477029   4.978824   5.411740   3.442951   6.343099
                   26         27         28         29         30
    26  C    0.000000
    27  O    1.236577   0.000000
    28  O    1.352556   2.298541   0.000000
    29  H    1.092491   2.056384   2.020351   0.000000
    30  H    1.983838   2.458391   1.020890   2.901326   0.000000
    31  C    4.471912   3.273884   5.499135   5.019685   5.370332
    32  O    4.129165   2.956937   4.932377   4.868330   4.638428
    33  O    3.870298   2.798616   5.086560   4.182224   5.193629
    34  H    5.550352   4.345695   6.571363   6.076179   6.402234
    35  H    2.934244   1.916541   4.173365   3.256360   4.352730
                   31         32         33         34         35
    31  C    0.000000
    32  O    1.220572   0.000000
    33  O    1.332485   2.219696   0.000000
    34  H    1.089365   1.997153   2.097909   0.000000
    35  H    1.892135   2.299702   0.950675   2.872680   0.000000
 Stoichiometry    C7H14O14
 Framework group  C1[X(C7H14O14)]
 Deg. of freedom    99
 Full point group                 C1      NOp   1
 Largest Abelian subgroup         C1      NOp   1
 Largest concise Abelian subgroup C1      NOp   1
                         Standard orientation:                         
 ---------------------------------------------------------------------
 Center     Atomic      Atomic             Coordinates (Angstroms)
 Number     Number       Type             X           Y           Z
 ---------------------------------------------------------------------
      1          6           0       -1.617491    2.190963    1.365665
      2          8           0       -1.920163    1.482098    0.355753
      3          8           0       -1.140237    3.407488    1.307392
      4          1           0       -1.758431    1.799633    2.371938
      5          1           0       -0.959861    3.785347    0.358510
      6          6           0       -0.939550    3.570324   -2.109675
      7          8           0       -0.764566    4.269905   -1.089129
      8          8           0       -1.435631    2.336681   -2.135931
      9          1           0       -0.702021    3.941360   -3.105562
     10          1           0       -1.628461    1.946504   -1.221519
     11          6           0       -2.842613   -1.133184    2.204467
     12          8           0       -2.573216   -0.275429    3.043646
     13          8           0       -2.699625   -0.963675    0.858367
     14          1           0       -3.226461   -2.128443    2.437228
     15          1           0       -2.348869   -0.038023    0.594306
     16          6           0       -2.756442   -3.661740   -1.419441
     17          8           0       -1.556569   -3.854614   -1.162164
     18          8           0       -3.536214   -2.701544   -0.923157
     19          1           0       -3.309251   -4.302720   -2.107428
     20          1           0       -3.117322   -2.050706   -0.269305
     21          6           0        1.010802   -1.726266   -0.221737
     22          8           0        0.166708   -0.836283   -0.481739
     23          8           0        0.762041   -3.028811   -0.254373
     24          1           0        2.036913   -1.489989    0.060543
     25          1           0       -0.168449   -3.289143   -0.552537
     26          6           0        2.304434    1.691010    0.026955
     27          8           0        3.015001    0.702601    0.244360
     28          8           0        1.004444    1.648513   -0.344030
     29          1           0        2.653002    2.722698    0.114447
     30          1           0        0.652888    0.694569   -0.436848
     31          6           0        5.543479   -1.373488    0.366719
     32          8           0        4.622424   -1.703831   -0.362888
     33          8           0        5.613763   -0.136331    0.856637
     34          1           0        6.315849   -2.098980    0.619348
     35          1           0        4.879484    0.388044    0.557223
 ---------------------------------------------------------------------
 Rotational constants (GHZ):      0.2174955      0.1728967      0.1205707
 Standard basis: 6-31G (6D, 7F)
 There are   217 symmetry adapted basis functions of A   symmetry.
 Integral buffers will be    131072 words long.
 Raffenetti 2 integral format.
 Two-electron integral symmetry is turned on.
   217 basis functions,   518 primitive gaussians,   217 cartesian basis functions
    84 alpha electrons       84 beta electrons
       nuclear repulsion energy      1788.8582395607 Hartrees.
 NAtoms=   35 NActive=   35 NUniq=   35 SFac= 7.50D-01 NAtFMM=   80 NAOKFM=F Big=F
 One-electron integrals computed using PRISM.
 NBasis=   217 RedAO= T  NBF=   217
 NBsUse=   217 1.00D-06 NBFU=   217
 Harris functional with IExCor=  402 diagonalized for initial guess.
 ExpMin= 1.61D-01 ExpMax= 5.48D+03 ExpMxC= 8.25D+02 IAcc=1 IRadAn=         1 AccDes= 0.00D+00
 HarFok:  IExCor=  402 AccDes= 0.00D+00 IRadAn=         1 IDoV= 1
 ScaDFX=  1.000000  1.000000  1.000000  1.000000
 FoFCou: FMM=F IPFlag=           0 FMFlag=      100000 FMFlg1=           0
         NFxFlg=           0 DoJE=T BraDBF=F KetDBF=T FulRan=T
         Omega=  0.000000  0.000000  1.000000  0.000000  0.000000 ICntrl=     500 IOpCl=  0
         NMat0=    1 NMatS0=    1 NMatT0=    0 NMatD0=    1 NMtDS0=    0 NMtDT0=    0
         I1Cent=           4 NGrid=           0.
 Petite list used in FoFCou.
 Initial guess orbital symmetries:
       Occupied  (A) (A) (A) (A) (A) (A) (A) (A) (A) (A) (A) (A)
                 (A) (A) (A) (A) (A) (A) (A) (A) (A) (A) (A) (A)
                 (A) (A) (A) (A) (A) (A) (A) (A) (A) (A) (A) (A)
                 (A) (A) (A) (A) (A) (A) (A) (A) (A) (A) (A) (A)
                 (A) (A) (A) (A) (A) (A) (A) (A) (A) (A) (A) (A)
                 (A) (A) (A) (A) (A) (A) (A) (A) (A) (A) (A) (A)
                 (A) (A) (A) (A) (A) (A) (A) (A) (A) (A) (A) (A)
       Virtual   (A) (A) (A) (A) (A) (A) (A) (A) (A) (A) (A) (A)
                 (A) (A) (A) (A) (A) (A) (A) (A) (A) (A) (A) (A)
                 (A) (A) (A) (A) (A) (A) (A) (A) (A) (A) (A) (A)
                 (A) (A) (A) (A) (A) (A) (A) (A) (A) (A) (A) (A)
                 (A) (A) (A) (A) (A) (A) (A) (A) (A) (A) (A) (A)
                 (A) (A) (A) (A) (A) (A) (A) (A) (A) (A) (A) (A)
                 (A) (A) (A) (A) (A) (A) (A) (A) (A) (A) (A) (A)
                 (A) (A) (A) (A) (A) (A) (A) (A) (A) (A) (A) (A)
                 (A) (A) (A) (A) (A) (A) (A) (A) (A) (A) (A) (A)
                 (A) (A) (A) (A) (A) (A) (A) (A) (A) (A) (A) (A)
                 (A) (A) (A) (A) (A) (A) (A) (A) (A) (A) (A) (A)
                 (A)
 The electronic state of the initial guess is 1-A.
 Requested convergence on RMS density matrix=1.00D-08 within 128 cycles.
 Requested convergence on MAX density matrix=1.00D-06.
 Requested convergence on             energy=1.00D-06.
 No special actions if energy rises.
 Keep R1 ints in memory in canonical form, NReq=285388779.
 Integral accuracy reduced to 1.0D-05 until final iterations.
 Initial convergence to 1.0D-05 achieved.  Increase integral accuracy.
 SCF Done:  E(RB3LYP) =  -1327.93456008     A.U. after   15 cycles
             Convg  =    0.6658D-08             -V/T =  2.0056

 **********************************************************************

            Population analysis using the SCF density.

 **********************************************************************

 Orbital symmetries:
       Occupied  (A) (A) (A) (A) (A) (A) (A) (A) (A) (A) (A) (A)
                 (A) (A) (A) (A) (A) (A) (A) (A) (A) (A) (A) (A)
                 (A) (A) (A) (A) (A) (A) (A) (A) (A) (A) (A) (A)
                 (A) (A) (A) (A) (A) (A) (A) (A) (A) (A) (A) (A)
                 (A) (A) (A) (A) (A) (A) (A) (A) (A) (A) (A) (A)
                 (A) (A) (A) (A) (A) (A) (A) (A) (A) (A) (A) (A)
                 (A) (A) (A) (A) (A) (A) (A) (A) (A) (A) (A) (A)
       Virtual   (A) (A) (A) (A) (A) (A) (A) (A) (A) (A) (A) (A)
                 (A) (A) (A) (A) (A) (A) (A) (A) (A) (A) (A) (A)
                 (A) (A) (A) (A) (A) (A) (A) (A) (A) (A) (A) (A)
                 (A) (A) (A) (A) (A) (A) (A) (A) (A) (A) (A) (A)
                 (A) (A) (A) (A) (A) (A) (A) (A) (A) (A) (A) (A)
                 (A) (A) (A) (A) (A) (A) (A) (A) (A) (A) (A) (A)
                 (A) (A) (A) (A) (A) (A) (A) (A) (A) (A) (A) (A)
                 (A) (A) (A) (A) (A) (A) (A) (A) (A) (A) (A) (A)
                 (A) (A) (A) (A) (A) (A) (A) (A) (A) (A) (A) (A)
                 (A) (A) (A) (A) (A) (A) (A) (A) (A) (A) (A) (A)
                 (A) (A) (A) (A) (A) (A) (A) (A) (A) (A) (A) (A)
                 (A)
 The electronic state is 1-A.
 Alpha  occ. eigenvalues --  -19.22481 -19.22396 -19.21697 -19.21053 -19.20639
 Alpha  occ. eigenvalues --  -19.19980 -19.19266 -19.19249 -19.18617 -19.17924
 Alpha  occ. eigenvalues --  -19.17691 -19.17633 -19.16995 -19.13238 -10.37661
 Alpha  occ. eigenvalues --  -10.36743 -10.36351 -10.35778 -10.35047 -10.33785
 Alpha  occ. eigenvalues --  -10.31708  -1.16123  -1.14523  -1.14234  -1.13338
 Alpha  occ. eigenvalues --   -1.12870  -1.12134  -1.11978  -1.07510  -1.06139
 Alpha  occ. eigenvalues --   -1.05675  -1.05043  -1.04615  -1.03442  -1.02054
 Alpha  occ. eigenvalues --   -0.71571  -0.69675  -0.69206  -0.68209  -0.67792
 Alpha  occ. eigenvalues --   -0.66792  -0.65963  -0.59545  -0.56688  -0.56222
 Alpha  occ. eigenvalues --   -0.55154  -0.54658  -0.53679  -0.53268  -0.53033
 Alpha  occ. eigenvalues --   -0.51317  -0.51234  -0.50487  -0.50016  -0.48795
 Alpha  occ. eigenvalues --   -0.48583  -0.47326  -0.47191  -0.46498  -0.45806
 Alpha  occ. eigenvalues --   -0.45771  -0.44929  -0.43787  -0.43742  -0.43672
 Alpha  occ. eigenvalues --   -0.40065  -0.39483  -0.38407  -0.36924  -0.36761
 Alpha  occ. eigenvalues --   -0.36450  -0.35338  -0.34825  -0.34611  -0.34152
 Alpha  occ. eigenvalues --   -0.33577  -0.32671  -0.32474  -0.31734  -0.31295
 Alpha  occ. eigenvalues --   -0.30954  -0.30640  -0.30209  -0.26613
 Alpha virt. eigenvalues --   -0.05910  -0.04419  -0.04327  -0.03501  -0.03127
 Alpha virt. eigenvalues --   -0.02164   0.00385   0.08115   0.09538   0.10135
 Alpha virt. eigenvalues --    0.10696   0.11461   0.12041   0.13010   0.13731
 Alpha virt. eigenvalues --    0.14507   0.15201   0.16416   0.18302   0.18515
 Alpha virt. eigenvalues --    0.19813   0.22626   0.23704   0.24606   0.24897
 Alpha virt. eigenvalues --    0.25417   0.25731   0.26816   0.28327   0.29972
 Alpha virt. eigenvalues --    0.30687   0.31109   0.32345   0.34482   0.35630
 Alpha virt. eigenvalues --    0.45864   0.48254   0.48629   0.49505   0.50129
 Alpha virt. eigenvalues --    0.50569   0.51316   0.51874   0.52122   0.53280
 Alpha virt. eigenvalues --    0.54522   0.55611   0.56222   0.57600   0.58550
 Alpha virt. eigenvalues --    0.60730   0.61728   0.63685   0.64695   0.65835
 Alpha virt. eigenvalues --    0.68166   0.68741   0.69576   0.70210   0.70968
 Alpha virt. eigenvalues --    0.71834   0.72464   0.74336   0.76013   0.77389
 Alpha virt. eigenvalues --    0.78366   0.79405   0.79760   0.81569   0.82060
 Alpha virt. eigenvalues --    0.82681   0.84112   0.85106   0.85244   0.85866
 Alpha virt. eigenvalues --    0.86391   0.87177   0.88497   0.89044   0.89870
 Alpha virt. eigenvalues --    0.90296   0.91607   0.92998   0.93433   0.95936
 Alpha virt. eigenvalues --    0.96408   0.97320   0.98043   0.99437   0.99689
 Alpha virt. eigenvalues --    1.00092   1.02856   1.03433   1.05089   1.05521
 Alpha virt. eigenvalues --    1.09165   1.09956   1.10476   1.11950   1.13778
 Alpha virt. eigenvalues --    1.15563   1.16705   1.18886   1.20240   1.20885
 Alpha virt. eigenvalues --    1.23091   1.25474   1.26068   1.27311   1.29503
 Alpha virt. eigenvalues --    1.30049   1.32158   1.33413   1.36334   1.37483
 Alpha virt. eigenvalues --    1.40191   1.40518   1.46381   1.51010   1.62405
 Alpha virt. eigenvalues --    1.64684   1.66305   1.67127   1.68385   1.69001
 Alpha virt. eigenvalues --    1.71250   1.76859   1.77980   1.82122   1.88772
 Alpha virt. eigenvalues --    1.89655   1.93813   2.03894
          Condensed to atoms (all electrons):
              1          2          3          4          5          6
     1  C    4.670783   0.290906   0.262922   0.363163  -0.017113   0.001430
     2  O    0.290906   8.331519  -0.082287  -0.062206   0.002958   0.001047
     3  O    0.262922  -0.082287   8.255301  -0.060018   0.184068   0.002447
     4  H    0.363163  -0.062206  -0.060018   0.505425   0.002292   0.000014
     5  H   -0.017113   0.002958   0.184068   0.002292   0.290629  -0.009482
     6  C    0.001430   0.001047   0.002447   0.000014  -0.009482   4.624549
     7  O    0.002349  -0.000802  -0.046221  -0.000067   0.097817   0.366670
     8  O    0.000941  -0.029454   0.000321  -0.000058  -0.000524   0.232761
     9  H    0.000012  -0.000065  -0.000097  -0.000001   0.001154   0.381035
    10  H   -0.004920   0.071348  -0.000900   0.000745   0.002091  -0.017136
    11  C    0.001740   0.001257   0.000011  -0.001259   0.000001   0.000000
    12  O   -0.005172  -0.000856   0.000074   0.023867   0.000000   0.000000
    13  O    0.000388  -0.036181  -0.000017   0.000296   0.000002   0.000000
    14  H    0.000003  -0.000077   0.000000   0.000228   0.000000   0.000000
    15  H   -0.003104   0.074396   0.000428   0.000093  -0.000005  -0.000006
    16  C    0.000000   0.000000   0.000000   0.000000   0.000000   0.000000
    17  O    0.000000   0.000000   0.000000   0.000000   0.000000   0.000000
    18  O    0.000000  -0.000004   0.000000   0.000000   0.000000   0.000000
    19  H    0.000000   0.000000   0.000000   0.000000   0.000000   0.000000
    20  H    0.000009   0.000058   0.000000  -0.000004   0.000000   0.000000
    21  C    0.000023   0.000055   0.000000   0.000002   0.000000   0.000000
    22  O    0.000072  -0.000126   0.000000  -0.000005   0.000000  -0.000004
    23  O    0.000000   0.000000   0.000000   0.000000   0.000000   0.000000
    24  H   -0.000002  -0.000001   0.000000   0.000000   0.000000   0.000000
    25  H    0.000000  -0.000001   0.000000   0.000000   0.000000   0.000000
    26  C    0.000263   0.000000   0.000135  -0.000003   0.000127   0.000249
    27  O   -0.000005   0.000000   0.000000   0.000000   0.000002   0.000002
    28  O    0.005470  -0.001392  -0.000826  -0.000048   0.001672   0.004706
    29  H   -0.000027  -0.000007   0.000078  -0.000001   0.000006  -0.000005
    30  H   -0.000133   0.001738  -0.000115  -0.000030  -0.000022  -0.000023
    31  C    0.000000   0.000000   0.000000   0.000000   0.000000   0.000000
    32  O    0.000000   0.000000   0.000000   0.000000   0.000000   0.000000
    33  O    0.000000   0.000000   0.000000   0.000000   0.000000   0.000000
    34  H    0.000000   0.000000   0.000000   0.000000   0.000000   0.000000
    35  H    0.000000   0.000000   0.000000   0.000000   0.000000   0.000000
              7          8          9         10         11         12
     1  C    0.002349   0.000941   0.000012  -0.004920   0.001740  -0.005172
     2  O   -0.000802  -0.029454  -0.000065   0.071348   0.001257  -0.000856
     3  O   -0.046221   0.000321  -0.000097  -0.000900   0.000011   0.000074
     4  H   -0.000067  -0.000058  -0.000001   0.000745  -0.001259   0.023867
     5  H    0.097817  -0.000524   0.001154   0.002091   0.000001   0.000000
     6  C    0.366670   0.232761   0.381035  -0.017136   0.000000   0.000000
     7  O    8.199095  -0.083624  -0.061864   0.002858   0.000000   0.000000
     8  O   -0.083624   8.285208  -0.078564   0.201140   0.000000   0.000000
     9  H   -0.061864  -0.078564   0.567787   0.003718   0.000000   0.000000
    10  H    0.002858   0.201140   0.003718   0.299337  -0.000014  -0.000001
    11  C    0.000000   0.000000   0.000000  -0.000014   4.645684   0.476698
    12  O    0.000000   0.000000   0.000000  -0.000001   0.476698   8.041023
    13  O    0.000000  -0.000003   0.000000   0.000016   0.121286  -0.086472
    14  H    0.000000   0.000000   0.000000   0.000000   0.365588  -0.056048
    15  H    0.000004  -0.000005   0.000000   0.000731  -0.009889   0.003248
    16  C    0.000000   0.000000   0.000000   0.000000   0.000182   0.000001
    17  O    0.000000   0.000000   0.000000   0.000000   0.000018   0.000000
    18  O    0.000000   0.000000   0.000000   0.000001  -0.000298  -0.000007
    19  H    0.000000   0.000000   0.000000   0.000000  -0.000002   0.000000
    20  H    0.000000   0.000001   0.000000  -0.000003   0.000796   0.000218
    21  C    0.000000  -0.000002   0.000000  -0.000007   0.000114  -0.000002
    22  O    0.000000  -0.000049   0.000000   0.000360   0.000130  -0.000005
    23  O    0.000000   0.000000   0.000000   0.000000   0.000000   0.000000
    24  H    0.000000   0.000000   0.000000   0.000002   0.000000   0.000000
    25  H    0.000000   0.000000   0.000000   0.000000   0.000034   0.000000
    26  C   -0.000039  -0.000008   0.000000   0.000002   0.000000   0.000000
    27  O    0.000000   0.000000   0.000000   0.000001   0.000000   0.000000
    28  O   -0.000828  -0.000722  -0.000027   0.001184   0.000000   0.000000
    29  H    0.000180  -0.000008   0.000000  -0.000006   0.000000   0.000000
    30  H   -0.000027   0.001352  -0.000007   0.000006  -0.000005  -0.000001
    31  C    0.000000   0.000000   0.000000   0.000000   0.000000   0.000000
    32  O    0.000000   0.000000   0.000000   0.000000   0.000000   0.000000
    33  O    0.000000   0.000000   0.000000   0.000000   0.000000   0.000000
    34  H    0.000000   0.000000   0.000000   0.000000   0.000000   0.000000
    35  H    0.000000   0.000000   0.000000   0.000000   0.000000   0.000000
             13         14         15         16         17         18
     1  C    0.000388   0.000003  -0.003104   0.000000   0.000000   0.000000
     2  O   -0.036181  -0.000077   0.074396   0.000000   0.000000  -0.000004
     3  O   -0.000017   0.000000   0.000428   0.000000   0.000000   0.000000
     4  H    0.000296   0.000228   0.000093   0.000000   0.000000   0.000000
     5  H    0.000002   0.000000  -0.000005   0.000000   0.000000   0.000000
     6  C    0.000000   0.000000  -0.000006   0.000000   0.000000   0.000000
     7  O    0.000000   0.000000   0.000004   0.000000   0.000000   0.000000
     8  O   -0.000003   0.000000  -0.000005   0.000000   0.000000   0.000000
     9  H    0.000000   0.000000   0.000000   0.000000   0.000000   0.000000
    10  H    0.000016   0.000000   0.000731   0.000000   0.000000   0.000001
    11  C    0.121286   0.365588  -0.009889   0.000182   0.000018  -0.000298
    12  O   -0.086472  -0.056048   0.003248   0.000001   0.000000  -0.000007
    13  O    8.509828  -0.088615   0.187805   0.001513  -0.000239  -0.030891
    14  H   -0.088615   0.604924   0.003318   0.000124  -0.000011   0.000662
    15  H    0.187805   0.003318   0.266649   0.000031  -0.000005   0.000407
    16  C    0.001513   0.000124   0.000031   4.624150   0.403655   0.215059
    17  O   -0.000239  -0.000011  -0.000005   0.403655   8.156892  -0.086843
    18  O   -0.030891   0.000662   0.000407   0.215059  -0.086843   8.324954
    19  H   -0.000057   0.000004   0.000001   0.378079  -0.065695  -0.085204
    20  H    0.053817  -0.000260  -0.000035  -0.010372   0.004454   0.206182
    21  C    0.000570   0.000000  -0.000078   0.000336   0.000906  -0.000032
    22  O   -0.000212  -0.000009   0.004312   0.000289  -0.000454  -0.000042
    23  O   -0.000028   0.000000  -0.000030   0.000791  -0.030523   0.000021
    24  H    0.000002   0.000000   0.000022   0.000007  -0.000035   0.000000
    25  H    0.000263   0.000003   0.000021  -0.005416   0.075226  -0.000348
    26  C    0.000000   0.000000  -0.000004   0.000000   0.000000   0.000000
    27  O    0.000000   0.000000   0.000000   0.000000   0.000000   0.000000
    28  O    0.000000   0.000000  -0.000016   0.000000   0.000000   0.000000
    29  H    0.000000   0.000000   0.000000   0.000000   0.000000   0.000000
    30  H   -0.000019   0.000000   0.000109   0.000000   0.000001   0.000000
    31  C    0.000000   0.000000   0.000000   0.000000   0.000000   0.000000
    32  O    0.000000   0.000000   0.000000   0.000000   0.000000   0.000000
    33  O    0.000000   0.000000   0.000000   0.000000   0.000000   0.000000
    34  H    0.000000   0.000000   0.000000   0.000000   0.000000   0.000000
    35  H    0.000000   0.000000   0.000000   0.000000   0.000000   0.000000
             19         20         21         22         23         24
     1  C    0.000000   0.000009   0.000023   0.000072   0.000000  -0.000002
     2  O    0.000000   0.000058   0.000055  -0.000126   0.000000  -0.000001
     3  O    0.000000   0.000000   0.000000   0.000000   0.000000   0.000000
     4  H    0.000000  -0.000004   0.000002  -0.000005   0.000000   0.000000
     5  H    0.000000   0.000000   0.000000   0.000000   0.000000   0.000000
     6  C    0.000000   0.000000   0.000000  -0.000004   0.000000   0.000000
     7  O    0.000000   0.000000   0.000000   0.000000   0.000000   0.000000
     8  O    0.000000   0.000001  -0.000002  -0.000049   0.000000   0.000000
     9  H    0.000000   0.000000   0.000000   0.000000   0.000000   0.000000
    10  H    0.000000  -0.000003  -0.000007   0.000360   0.000000   0.000002
    11  C   -0.000002   0.000796   0.000114   0.000130   0.000000   0.000000
    12  O    0.000000   0.000218  -0.000002  -0.000005   0.000000   0.000000
    13  O   -0.000057   0.053817   0.000570  -0.000212  -0.000028   0.000002
    14  H    0.000004  -0.000260   0.000000  -0.000009   0.000000   0.000000
    15  H    0.000001  -0.000035  -0.000078   0.004312  -0.000030   0.000022
    16  C    0.378079  -0.010372   0.000336   0.000289   0.000791   0.000007
    17  O   -0.065695   0.004454   0.000906  -0.000454  -0.030523  -0.000035
    18  O   -0.085204   0.206182  -0.000032  -0.000042   0.000021   0.000000
    19  H    0.594514   0.004670   0.000004   0.000001  -0.000055   0.000000
    20  H    0.004670   0.290011   0.000159   0.000643  -0.000070   0.000004
    21  C    0.000004   0.000159   4.721540   0.347907   0.227900   0.349278
    22  O    0.000001   0.000643   0.347907   8.253632  -0.087786  -0.063123
    23  O   -0.000055  -0.000070   0.227900  -0.087786   8.287548  -0.066918
    24  H    0.000000   0.000004   0.349278  -0.063123  -0.066918   0.521525
    25  H    0.000761   0.000618  -0.012782   0.005034   0.197284   0.003738
    26  C    0.000000   0.000000   0.001464   0.001216   0.000008  -0.000586
    27  O    0.000000   0.000000  -0.001932  -0.000738   0.000048   0.014651
    28  O    0.000000   0.000000   0.000301  -0.037663  -0.000019   0.000402
    29  H    0.000000   0.000000   0.000020  -0.000087   0.000000   0.000145
    30  H    0.000000  -0.000001  -0.003734   0.086565   0.000579  -0.000388
    31  C    0.000000   0.000000   0.000029   0.000000   0.000002   0.000054
    32  O    0.000000   0.000000  -0.003119   0.000013   0.000004   0.013588
    33  O    0.000000   0.000000   0.000021   0.000000   0.000000  -0.000241
    34  H    0.000000   0.000000  -0.000016   0.000000   0.000000   0.000123
    35  H    0.000000   0.000000  -0.000042   0.000002   0.000000   0.000186
             25         26         27         28         29         30
     1  C    0.000000   0.000263  -0.000005   0.005470  -0.000027  -0.000133
     2  O   -0.000001   0.000000   0.000000  -0.001392  -0.000007   0.001738
     3  O    0.000000   0.000135   0.000000  -0.000826   0.000078  -0.000115
     4  H    0.000000  -0.000003   0.000000  -0.000048  -0.000001  -0.000030
     5  H    0.000000   0.000127   0.000002   0.001672   0.000006  -0.000022
     6  C    0.000000   0.000249   0.000002   0.004706  -0.000005  -0.000023
     7  O    0.000000  -0.000039   0.000000  -0.000828   0.000180  -0.000027
     8  O    0.000000  -0.000008   0.000000  -0.000722  -0.000008   0.001352
     9  H    0.000000   0.000000   0.000000  -0.000027   0.000000  -0.000007
    10  H    0.000000   0.000002   0.000001   0.001184  -0.000006   0.000006
    11  C    0.000034   0.000000   0.000000   0.000000   0.000000  -0.000005
    12  O    0.000000   0.000000   0.000000   0.000000   0.000000  -0.000001
    13  O    0.000263   0.000000   0.000000   0.000000   0.000000  -0.000019
    14  H    0.000003   0.000000   0.000000   0.000000   0.000000   0.000000
    15  H    0.000021  -0.000004   0.000000  -0.000016   0.000000   0.000109
    16  C   -0.005416   0.000000   0.000000   0.000000   0.000000   0.000000
    17  O    0.075226   0.000000   0.000000   0.000000   0.000000   0.000001
    18  O   -0.000348   0.000000   0.000000   0.000000   0.000000   0.000000
    19  H    0.000761   0.000000   0.000000   0.000000   0.000000   0.000000
    20  H    0.000618   0.000000   0.000000   0.000000   0.000000  -0.000001
    21  C   -0.012782   0.001464  -0.001932   0.000301   0.000020  -0.003734
    22  O    0.005034   0.001216  -0.000738  -0.037663  -0.000087   0.086565
    23  O    0.197284   0.000008   0.000048  -0.000019   0.000000   0.000579
    24  H    0.003738  -0.000586   0.014651   0.000402   0.000145  -0.000388
    25  H    0.307522   0.000000   0.000000   0.000003   0.000000  -0.000002
    26  C    0.000000   4.670384   0.404760   0.196237   0.366265  -0.015137
    27  O    0.000000   0.404760   8.117897  -0.086155  -0.061947   0.002749
    28  O    0.000003   0.196237  -0.086155   8.403217  -0.086953   0.184075
    29  H    0.000000   0.366265  -0.061947  -0.086953   0.613292   0.003667
    30  H   -0.000002  -0.015137   0.002749   0.184075   0.003667   0.300223
    31  C    0.000000   0.000196  -0.000521  -0.000003   0.000009  -0.000001
    32  O   -0.000003   0.000326  -0.000695  -0.000001  -0.000005  -0.000005
    33  O    0.000000  -0.000057  -0.012194  -0.000003   0.000076   0.000000
    34  H    0.000000   0.000004  -0.000034   0.000000   0.000000   0.000000
    35  H    0.000000   0.000362   0.050652   0.000235  -0.000673  -0.000005
             31         32         33         34         35
     1  C    0.000000   0.000000   0.000000   0.000000   0.000000
     2  O    0.000000   0.000000   0.000000   0.000000   0.000000
     3  O    0.000000   0.000000   0.000000   0.000000   0.000000
     4  H    0.000000   0.000000   0.000000   0.000000   0.000000
     5  H    0.000000   0.000000   0.000000   0.000000   0.000000
     6  C    0.000000   0.000000   0.000000   0.000000   0.000000
     7  O    0.000000   0.000000   0.000000   0.000000   0.000000
     8  O    0.000000   0.000000   0.000000   0.000000   0.000000
     9  H    0.000000   0.000000   0.000000   0.000000   0.000000
    10  H    0.000000   0.000000   0.000000   0.000000   0.000000
    11  C    0.000000   0.000000   0.000000   0.000000   0.000000
    12  O    0.000000   0.000000   0.000000   0.000000   0.000000
    13  O    0.000000   0.000000   0.000000   0.000000   0.000000
    14  H    0.000000   0.000000   0.000000   0.000000   0.000000
    15  H    0.000000   0.000000   0.000000   0.000000   0.000000
    16  C    0.000000   0.000000   0.000000   0.000000   0.000000
    17  O    0.000000   0.000000   0.000000   0.000000   0.000000
    18  O    0.000000   0.000000   0.000000   0.000000   0.000000
    19  H    0.000000   0.000000   0.000000   0.000000   0.000000
    20  H    0.000000   0.000000   0.000000   0.000000   0.000000
    21  C    0.000029  -0.003119   0.000021  -0.000016  -0.000042
    22  O    0.000000   0.000013   0.000000   0.000000   0.000002
    23  O    0.000002   0.000004   0.000000   0.000000   0.000000
    24  H    0.000054   0.013588  -0.000241   0.000123   0.000186
    25  H    0.000000  -0.000003   0.000000   0.000000   0.000000
    26  C    0.000196   0.000326  -0.000057   0.000004   0.000362
    27  O   -0.000521  -0.000695  -0.012194  -0.000034   0.050652
    28  O   -0.000003  -0.000001  -0.000003   0.000000   0.000235
    29  H    0.000009  -0.000005   0.000076   0.000000  -0.000673
    30  H   -0.000001  -0.000005   0.000000   0.000000  -0.000005
    31  C    4.678237   0.482335   0.166686   0.353057  -0.021675
    32  O    0.482335   8.089613  -0.114313  -0.069333   0.005206
    33  O    0.166686  -0.114313   8.351933  -0.082035   0.229924
    34  H    0.353057  -0.069333  -0.082035   0.636357   0.004822
    35  H   -0.021675   0.005206   0.229924   0.004822   0.324817
 Mulliken atomic charges:
              1
     1  C    0.430003
     2  O   -0.561824
     3  O   -0.515304
     4  H    0.227576
     5  H    0.444327
     6  C    0.411745
     7  O   -0.475499
     8  O   -0.528703
     9  H    0.186917
    10  H    0.439448
    11  C    0.397929
    12  O   -0.396566
    13  O   -0.633052
    14  H    0.170165
    15  H    0.471599
    16  C    0.391572
    17  O   -0.457349
    18  O   -0.543618
    19  H    0.172979
    20  H    0.449104
    21  C    0.371120
    22  O   -0.509873
    23  O   -0.528757
    24  H    0.227567
    25  H    0.428045
    26  C    0.373835
    27  O   -0.426541
    28  O   -0.582846
    29  H    0.165981
    30  H    0.438590
    31  C    0.341595
    32  O   -0.403613
    33  O   -0.539799
    34  H    0.157055
    35  H    0.406190
 Sum of Mulliken atomic charges =   0.00000
 Mulliken charges with hydrogens summed into heavy atoms:
              1
     1  C    0.657579
     2  O   -0.561824
     3  O   -0.070978
     6  C    0.598662
     7  O   -0.475499
     8  O   -0.089255
    11  C    0.568095
    12  O   -0.396566
    13  O   -0.161453
    16  C    0.564551
    17  O   -0.457349
    18  O   -0.094513
    21  C    0.598687
    22  O   -0.509873
    23  O   -0.100712
    26  C    0.539816
    27  O   -0.426541
    28  O   -0.144256
    31  C    0.498650
    32  O   -0.403613
    33  O   -0.133609
 Sum of Mulliken charges with hydrogens summed into heavy atoms =   0.00000
 Electronic spatial extent (au):  <R**2>=           9118.2342
 Charge=              0.0000 electrons
 Dipole moment (field-independent basis, Debye):
    X=             -3.2071    Y=              1.3632    Z=             -0.5568  Tot=              3.5290
 Quadrupole moment (field-independent basis, Debye-Ang):
   XX=           -120.8571   YY=           -119.7499   ZZ=           -121.6739
   XY=             10.9365   XZ=              0.5493   YZ=             -9.7065
 Traceless Quadrupole moment (field-independent basis, Debye-Ang):
   XX=             -0.0968   YY=              1.0104   ZZ=             -0.9136
   XY=             10.9365   XZ=              0.5493   YZ=             -9.7065
 Octapole moment (field-independent basis, Debye-Ang**2):
  XXX=            -16.0454  YYY=            -18.4748  ZZZ=            -47.2487  XYY=            -33.1340
  XXY=            -24.5970  XXZ=             -1.6978  XZZ=             -4.6043  YZZ=              2.4087
  YYZ=            -24.4536  XYZ=            -12.4666
 Hexadecapole moment (field-independent basis, Debye-Ang**3):
 XXXX=          -5574.6803 YYYY=          -4391.9275 ZZZZ=          -1367.2157 XXXY=           -181.4980
 XXXZ=           -112.1763 YYYX=            214.5272 YYYZ=            -88.5516 ZZZX=             70.7489
 ZZZY=            -61.0769 XXYY=          -1383.3701 XXZZ=          -1185.9646 YYZZ=           -760.1229
 XXYZ=            -71.9227 YYXZ=             91.7977 ZZXY=             53.4088
 N-N= 1.788858239561D+03 E-N=-6.700887839648D+03  KE= 1.320600857474D+03
 Calling FoFJK, ICntrl=      2127 FMM=F ISym2X=0 I1Cent= 0 IOpClX= 0 NMat=1 NMatS=1 NMatT=0.
 ***** Axes restored to original set *****
 -------------------------------------------------------------------
 Center     Atomic                   Forces (Hartrees/Bohr)
 Number     Number              X              Y              Z
 -------------------------------------------------------------------
      1        6          -0.000570954    0.000531823   -0.000473668
      2        8           0.000436285   -0.000622743    0.000256580
      3        8           0.000565762   -0.000312114    0.000386568
      4        1          -0.000051850    0.000048872   -0.000080777
      5        1          -0.000440740   -0.000026301   -0.000027861
      6        6          -0.000437291    0.000501639    0.000474687
      7        8           0.000342924   -0.000320189   -0.000285611
      8        8           0.000358874   -0.000257333    0.000009079
      9        1          -0.000042113   -0.000002192   -0.000016533
     10        1          -0.000377206    0.000180526   -0.000063744
     11        6          -0.000029529    0.000427099    0.000152717
     12        8           0.000084752   -0.000348756    0.000088615
     13        8          -0.000091089   -0.000569412   -0.000020652
     14        1           0.000029097   -0.000025651    0.000045423
     15        1          -0.000004704    0.000633642   -0.000443721
     16        6           0.000912949    0.000400138   -0.000028919
     17        8          -0.000946113    0.000200227    0.000020334
     18        8          -0.000397926   -0.000619246   -0.000040842
     19        1          -0.000053210   -0.000004344    0.000024467
     20        1           0.000020452    0.000479418    0.000083111
     21        6           0.005046793    0.000679511   -0.001994274
     22        8          -0.003304325   -0.002924990    0.002337017
     23        8          -0.001797980   -0.000775700    0.000204288
     24        1           0.001504738    0.002339243    0.000600361
     25        1           0.000746161   -0.000326606    0.000280767
     26        6          -0.012126265   -0.003774664    0.005335348
     27        8           0.004317100   -0.001621224   -0.001161416
     28        8           0.009694349   -0.003394300   -0.001169989
     29        1           0.000028860    0.000416110    0.000114012
     30        1          -0.001216329    0.005016118   -0.002170384
     31        6          -0.004409994    0.013594789    0.000509247
     32        8          -0.017363766    0.030043300    0.005023760
     33        8           0.051267086   -0.015509003   -0.018851954
     34        1           0.006811591   -0.016184136   -0.001719565
     35        1          -0.038506390   -0.007873551    0.012603529
 -------------------------------------------------------------------
 Cartesian Forces:  Max     0.051267086 RMS     0.008222444

 GradGradGradGradGradGradGradGradGradGradGradGradGradGradGradGradGradGrad
 Berny optimization.
 Internal  Forces:  Max     0.040829438 RMS     0.007021184
 Search for a local minimum.
 Step number   1 out of a maximum of  135
 All quantities printed in internal units (Hartrees-Bohrs-Radians)
 Mixed Optimization -- RFO/linear search
 Second derivative matrix not updated -- first step.
     Eigenvalues ---    0.00230   0.00230   0.00230   0.00230   0.00230
     Eigenvalues ---    0.00404   0.00704   0.00752   0.00752   0.00834
     Eigenvalues ---    0.00854   0.00880   0.01300   0.01433   0.01681
     Eigenvalues ---    0.02056   0.02165   0.02165   0.02319   0.02581
     Eigenvalues ---    0.02585   0.02585   0.02652   0.02664   0.03176
     Eigenvalues ---    0.03184   0.03209   0.03236   0.03245   0.03261
     Eigenvalues ---    0.03625   0.03779   0.03854   0.04849   0.04960
     Eigenvalues ---    0.08310   0.08700   0.08753   0.08963   0.09146
     Eigenvalues ---    0.10742   0.15843   0.15945   0.15982   0.15990
     Eigenvalues ---    0.15999   0.16000   0.16000   0.16000   0.16000
     Eigenvalues ---    0.16000   0.16000   0.16000   0.16000   0.16000
     Eigenvalues ---    0.16000   0.16000   0.16000   0.16000   0.19267
     Eigenvalues ---    0.19906   0.22000   0.22000   0.22000   0.22000
     Eigenvalues ---    0.22000   0.22360   0.25000   0.25000   0.25000
     Eigenvalues ---    0.25000   0.34526   0.34604   0.34724   0.34796
     Eigenvalues ---    0.34886   0.34931   0.34946   0.40650   0.43629
     Eigenvalues ---    0.44196   0.44755   0.45440   0.45775   0.52099
     Eigenvalues ---    0.54481   0.57528   0.58406   0.58853   0.58923
     Eigenvalues ---    0.60343   0.64100   0.74122   0.81827   0.81910
     Eigenvalues ---    0.86182   0.88400   0.91147   0.951301000.00000
     Eigenvalues --- 1000.000001000.000001000.000001000.000001000.00000
     Eigenvalues --- 1000.000001000.000001000.000001000.000001000.00000
     Eigenvalues --- 1000.000001000.000001000.000001000.000001000.00000
     Eigenvalues --- 1000.000001000.000001000.000001000.000001000.00000
     Eigenvalues --- 1000.000001000.000001000.000001000.000001000.00000
 RFO step:  Lambda=-2.05919048D-02 EMin= 2.30000000D-03
 Linear search not attempted -- first point.
 Maximum step size (   0.300) exceeded in Quadratic search.
    -- Step size scaled by   0.680
 Iteration  1 RMS(Cart)=  0.27987577 RMS(Int)=  0.01227085
 Iteration  2 RMS(Cart)=  0.14385866 RMS(Int)=  0.00246406
 Iteration  3 RMS(Cart)=  0.00725428 RMS(Int)=  0.00001671
 Iteration  4 RMS(Cart)=  0.00001311 RMS(Int)=  0.00001456
 Iteration  5 RMS(Cart)=  0.00000000 RMS(Int)=  0.00001456
 Variable       Old X    -DE/DX   Delta X   Delta X   Delta X     New X
                                 (Linear)    (Quad)   (Total)
    R1        2.40079  -0.00025   0.00000  -0.00023  -0.00023   2.40056
    R2        2.47193   0.00053   0.00000   0.00053   0.00053   2.47246
    R3        2.05762   0.00007   0.00000   0.00014   0.00014   2.05776
    R4        3.15564   0.00006   0.00000   0.00033   0.00033   3.15597
    R5        3.01852   0.00030   0.00000   0.00181   0.00181   3.02032
    R6        1.95994   0.00001   0.00000   0.00003   0.00003   1.95997
    R7        2.90833   0.00006   0.00000   0.00038   0.00038   2.90871
    R8        2.36144   0.00046   0.00000   0.00038   0.00038   2.36181
    R9        2.51317  -0.00014   0.00000  -0.00014  -0.00014   2.51302
   R10        2.05787  -0.00002   0.00000  -0.00004  -0.00004   2.05784
   R11        1.91373   0.00012   0.00000   0.00016   0.00016   1.91389
   R12        2.32409   0.00033   0.00000   0.00024   0.00024   2.32433
   R13        2.57805  -0.00029   0.00000  -0.00036  -0.00036   2.57769
   R14        2.06323  -0.00005   0.00000  -0.00010  -0.00010   2.06313
   R15        1.93602  -0.00048   0.00000  -0.00072  -0.00072   1.93530
   R16        3.06331   0.00010   0.00000   0.00061   0.00061   3.06393
   R17        2.34744  -0.00023   0.00000  -0.00018  -0.00018   2.34726
   R18        2.51860   0.00062   0.00000   0.00070   0.00070   2.51930
   R19        2.06126   0.00002   0.00000   0.00004   0.00004   2.06130
   R20        3.05778   0.00075   0.00000   0.00470   0.00470   3.06248
   R21        1.91468  -0.00040   0.00000  -0.00057  -0.00057   1.91410
   R22        2.36945   0.00517   0.00000   0.00419   0.00419   2.37364
   R23        2.50670  -0.00095   0.00000  -0.00103  -0.00103   2.50567
   R24        2.06007   0.00031   0.00000   0.00057   0.00057   2.06065
   R25        3.03646  -0.00150   0.00000  -0.00926  -0.00926   3.02720
   R26        1.91085  -0.00005   0.00000  -0.00007  -0.00007   1.91078
   R27        2.33679   0.00442   0.00000   0.00332   0.00332   2.34012
   R28        2.55596  -0.00939   0.00000  -0.01129  -0.01129   2.54467
   R29        2.06451  -0.00032   0.00000  -0.00059  -0.00059   2.06392
   R30        3.62174  -0.00231   0.00000  -0.02239  -0.02239   3.59935
   R31        1.92920   0.00416   0.00000   0.00612   0.00612   1.93532
   R32        2.30655   0.03303   0.00000   0.02311   0.02311   2.32965
   R33        2.51803   0.02485   0.00000   0.02771   0.02771   2.54574
   R34        2.05860   0.00073   0.00000   0.00134   0.00134   2.05994
   R35        1.79652   0.04083   0.00000   0.04659   0.04659   1.84311
    A1        2.17781  -0.00022   0.00000  -0.00083  -0.00083   2.17699
    A2        2.09818   0.00004   0.00000   0.00015   0.00015   2.09833
    A3        2.00715   0.00018   0.00000   0.00069   0.00068   2.00783
    A4        2.15801   0.00025   0.00000   0.00095   0.00094   2.15896
    A5        2.06715  -0.00015   0.00000  -0.00015  -0.00015   2.06699
    A6        2.04048  -0.00004   0.00000   0.00016   0.00016   2.04064
    A7        2.02977  -0.00001   0.00000  -0.00029  -0.00029   2.02948
    A8        2.19897  -0.00019   0.00000  -0.00056  -0.00056   2.19841
    A9        2.12419   0.00010   0.00000   0.00032   0.00032   2.12452
   A10        1.95990   0.00009   0.00000   0.00026   0.00026   1.96017
   A11        2.18237   0.00004   0.00000   0.00013   0.00013   2.18250
   A12        1.99390   0.00017   0.00000   0.00044   0.00044   1.99434
   A13        3.02549  -0.00009   0.00000  -0.00040  -0.00040   3.02509
   A14        2.16959  -0.00025   0.00000  -0.00070  -0.00070   2.16889
   A15        2.17403   0.00014   0.00000   0.00041   0.00041   2.17444
   A16        1.93956   0.00011   0.00000   0.00029   0.00029   1.93985
   A17        1.98501  -0.00017   0.00000  -0.00076  -0.00077   1.98424
   A18        2.18471   0.00040   0.00000   0.00140   0.00139   2.18610
   A19        2.11157  -0.00025   0.00000  -0.00105  -0.00106   2.11051
   A20        3.00169  -0.00109   0.00000  -0.00273  -0.00273   2.99895
   A21        2.21413   0.00149   0.00000   0.00419   0.00418   2.21831
   A22        2.12813  -0.00070   0.00000  -0.00195  -0.00197   2.12616
   A23        1.94090  -0.00079   0.00000  -0.00230  -0.00231   1.93859
   A24        2.59135   0.00301   0.00000   0.01132   0.01132   2.60266
   A25        2.05014   0.00163   0.00000   0.00614   0.00614   2.05627
   A26        2.97530  -0.00100   0.00000  -0.00251  -0.00251   2.97279
   A27        2.17200  -0.00262   0.00000  -0.00740  -0.00746   2.16454
   A28        2.13354   0.00344   0.00000   0.01172   0.01166   2.14520
   A29        1.97764  -0.00081   0.00000  -0.00426  -0.00432   1.97332
   A30        2.05641   0.00453   0.00000   0.01707   0.01707   2.07348
   A31        2.01820   0.00246   0.00000   0.00926   0.00926   2.02747
   A32        3.00344  -0.00186   0.00000  -0.00467  -0.00467   2.99876
   A33        2.18389  -0.00669   0.00000  -0.01891  -0.01896   2.16493
   A34        2.16206   0.00333   0.00000   0.00940   0.00936   2.17141
   A35        1.93724   0.00335   0.00000   0.00947   0.00942   1.94666
   A36        2.37302   0.00762   0.00000   0.02868   0.02868   2.40170
   A37        1.96630  -0.00012   0.00000  -0.00047  -0.00047   1.96583
   A38        2.10699   0.03018   0.00000   0.08530   0.08529   2.19227
   A39        2.08680   0.00306   0.00000   0.02569   0.02568   2.11247
   A40        2.08940  -0.03324   0.00000  -0.11098  -0.11099   1.97841
   A41        1.93433   0.01476   0.00000   0.05556   0.05556   1.98989
   A42        2.67552   0.00905   0.00000   0.02274   0.02274   2.69826
   A43        3.07323   0.00007   0.00000   0.00084   0.00084   3.07407
   A44        3.07981   0.00124   0.00000   0.03009   0.03009   3.10990
   A45        3.10008   0.00006   0.00000   0.00104   0.00104   3.10112
   A46        3.21406  -0.00202   0.00000  -0.04883  -0.04883   3.16522
    D1        0.09795  -0.00019   0.00000  -0.00280  -0.00280   0.09515
    D2        3.03292   0.00015   0.00000   0.00279   0.00279   3.03571
    D3       -3.05419  -0.00011   0.00000  -0.00192  -0.00192  -3.05612
    D4       -0.11922   0.00022   0.00000   0.00367   0.00367  -0.11556
    D5       -0.05411   0.00025   0.00000   0.00387   0.00387  -0.05024
    D6        3.09754   0.00019   0.00000   0.00304   0.00304   3.10058
    D7       -0.27231   0.00008   0.00000   0.00120   0.00120  -0.27111
    D8        3.07300  -0.00023   0.00000  -0.00428  -0.00428   3.06872
    D9        0.73753   0.00013   0.00000   0.00625   0.00625   0.74378
   D10       -2.59678   0.00047   0.00000   0.01156   0.01156  -2.58522
   D11       -0.07403  -0.00006   0.00000  -0.00133  -0.00133  -0.07536
   D12        0.11280  -0.00021   0.00000  -0.00264  -0.00264   0.11016
   D13       -3.04654  -0.00004   0.00000  -0.00030  -0.00030  -3.04684
   D14       -0.06163   0.00020   0.00000   0.00293   0.00293  -0.05869
   D15        3.09628   0.00004   0.00000   0.00078   0.00078   3.09706
   D16        0.20827  -0.00013   0.00000  -0.00201  -0.00201   0.20626
   D17       -0.00938  -0.00021   0.00000  -0.00407  -0.00407  -0.01345
   D18       -3.08500   0.00015   0.00000   0.00318   0.00318  -3.08182
   D19        3.13254  -0.00016   0.00000  -0.00326  -0.00326   3.12928
   D20        0.05692   0.00021   0.00000   0.00399   0.00399   0.06092
   D21       -0.60772   0.00037   0.00000   0.00865   0.00864  -0.59908
   D22        2.47097   0.00005   0.00000   0.00183   0.00184   2.47281
   D23        1.15604   0.00085   0.00000   0.02715   0.02715   1.18319
   D24       -1.91509   0.00124   0.00000   0.03488   0.03488  -1.88022
   D25       -0.28515  -0.00039   0.00000  -0.00507  -0.00507  -0.29022
   D26        2.86508   0.00040   0.00000   0.00512   0.00512   2.87020
   D27        0.00565   0.00120   0.00000   0.01695   0.01696   0.02261
   D28        3.13938   0.00048   0.00000   0.00768   0.00768  -3.13612
   D29       -2.71845  -0.00062   0.00000  -0.01828  -0.01828  -2.73673
   D30       -2.76467   0.00188   0.00000   0.04399   0.04399  -2.72068
   D31       -3.10945  -0.00090   0.00000  -0.00998  -0.00993  -3.11938
   D32        0.03556  -0.00253   0.00000  -0.03110  -0.03114   0.00442
   D33        0.04908  -0.00059   0.00000  -0.00737  -0.00732   0.04177
   D34       -3.09565   0.00092   0.00000   0.01211   0.01206  -3.08359
   D35       -0.01603  -0.00614   0.00000  -0.18243  -0.18243  -0.19846
   D36        2.32258  -0.00034   0.00000  -0.00784  -0.00784   2.31474
   D37        2.97876  -0.00068   0.00000  -0.00670  -0.00669   2.97207
   D38       -0.16577  -0.00217   0.00000  -0.02602  -0.02603  -0.19180
   D39       -0.00624  -0.00432   0.00000  -0.06537  -0.06536  -0.07160
   D40        3.13796  -0.00299   0.00000  -0.04819  -0.04821   3.08975
   D41        2.83557  -0.00308   0.00000  -0.09146  -0.09146   2.74411
   D42        0.00000  -0.00050   0.00000  -0.00726  -0.00726  -0.00727
   D43        3.14159   0.00007   0.00000   0.00104   0.00104  -3.14055
   D44        0.85189  -0.00175   0.00000  -0.03187  -0.03187   0.82002
         Item               Value     Threshold  Converged?
 Maximum Force            0.040829     0.000450     NO 
 RMS     Force            0.007021     0.000300     NO 
 Maximum Displacement     1.672476     0.001800     NO 
 RMS     Displacement     0.415849     0.001200     NO 
 Predicted change in Energy=-1.016811D-02
 GradGradGradGradGradGradGradGradGradGradGradGradGradGradGradGradGradGrad

                          Input orientation:                          
 ---------------------------------------------------------------------
 Center     Atomic      Atomic             Coordinates (Angstroms)
 Number     Number       Type             X           Y           Z
 ---------------------------------------------------------------------
      1          6           0       -0.945961   -2.386129   -0.328191
      2          8           0       -1.288680   -1.252808    0.132073
      3          8           0       -0.791714   -3.467508    0.391991
      4          1           0       -0.765821   -2.512998   -1.394586
      5          1           0       -0.921648   -3.360108    1.415370
      6          6           0       -1.401322   -1.991976    3.425064
      7          8           0       -1.172756   -3.108962    2.913063
      8          8           0       -1.584218   -0.852644    2.764053
      9          1           0       -1.485572   -1.862592    4.503022
     10          1           0       -1.471975   -0.930975    1.760556
     11          6           0       -1.173616    0.225312   -2.850215
     12          8           0       -0.944034   -0.955227   -3.108035
     13          8           0       -1.352120    0.715579   -1.589892
     14          1           0       -1.260137    1.017218   -3.596771
     15          1           0       -1.290162    0.001786   -0.858133
     16          6           0       -1.270283    4.188384   -0.928085
     17          8           0       -0.030148    4.140587   -0.979398
     18          8           0       -2.120953    3.172427   -1.074685
     19          1           0       -1.803437    5.125884   -0.764788
     20          1           0       -1.732927    2.249376   -1.227592
     21          6           0        2.309891    1.688443   -0.209967
     22          8           0        1.313001    1.104650    0.283108
     23          8           0        2.245508    2.835825   -0.871398
     24          1           0        3.326192    1.303527   -0.120264
     25          1           0        1.330840    3.261797   -0.937258
     26          6           0        2.957030   -1.613275    1.384287
     27          8           0        3.789141   -1.081499    0.637105
     28          8           0        1.708214   -1.146936    1.574734
     29          1           0        3.134986   -2.527400    1.954869
     30          1           0        1.538580   -0.263347    1.085520
     31          6           0        6.578640    0.059957   -0.862877
     32          8           0        5.792969    1.001157   -0.733813
     33          8           0        6.444801   -1.156390   -0.299494
     34          1           0        7.472988    0.154847   -1.478825
     35          1           0        5.646923   -1.252173    0.253215
 ---------------------------------------------------------------------
                    Distance matrix (angstroms):
                    1          2          3          4          5
     1  C    0.000000
     2  O    1.270320   0.000000
     3  O    1.308371   2.284606   0.000000
     4  H    1.088920   2.047473   2.025739   0.000000
     5  H    1.997306   2.494449   1.037171   2.939002   0.000000
     6  C    3.801267   3.376810   3.427586   4.889208   2.478052
     7  O    3.328611   3.345542   2.574792   4.367678   1.539225
     8  O    3.510116   2.678581   3.618322   4.552014   2.923237
     9  H    4.889365   4.417669   4.467413   5.976860   3.477666
    10  H    2.599428   1.670069   2.961372   3.599496   2.514497
    11  C    3.637589   3.330483   4.928962   3.127857   5.577987
    12  O    3.126503   3.271947   4.311025   2.322567   5.123002
    13  O    3.373047   2.616054   4.662632   3.287187   5.082138
    14  H    4.729175   4.365559   6.020167   4.190035   6.663116
    15  H    2.470111   1.598285   3.721191   2.624281   4.075162
    16  C    6.609786   5.543541   7.783592   6.736514   7.911577
    17  O    6.622748   5.648715   7.768127   6.706995   7.924020
    18  O    5.730218   4.661722   6.928690   5.853441   7.093145
    19  H    7.573389   6.461970   8.729726   7.734715   8.805833
    20  H    4.787080   3.783033   6.015953   4.862446   6.253777
    21  C    5.216961   4.660221   6.046994   5.339985   6.210671
    22  O    4.202634   3.514138   5.034512   4.497059   5.119544
    23  O    6.144050   5.496759   7.110055   6.160498   7.324600
    24  H    5.648724   5.281625   6.323159   5.738844   6.492442
    25  H    6.119955   5.327947   7.180229   6.160633   7.379579
    26  C    4.331653   4.441174   4.298362   4.731940   4.254002
    27  O    5.005501   5.105748   5.170818   5.188896   5.290490
    28  O    3.493045   3.327740   3.610205   4.099249   3.440887
    29  H    4.678296   4.951362   4.329592   5.141533   4.176212
    30  H    3.560579   3.143484   4.022177   4.064741   3.968810
    31  C    7.930248   8.037910   8.266790   7.800251   8.552284
    32  O    7.553238   7.481969   8.037068   7.470183   8.290096
    33  O    7.492425   7.746113   7.628012   7.418402   7.877925
    34  H    8.869004   9.019053   9.215569   8.660397   9.549932
    35  H    6.714909   6.936661   6.810508   6.740046   6.995722
[...]
   D25       -0.22955 -91.61428  -0.02571   0.00000  -0.02573  -0.25528
   D26        2.87204 -57.30732  -0.00078   0.00000  -0.00076   2.87127
   D27       -0.02466 -33.57977   0.02003   0.00000   0.02001  -0.00464
   D28       -3.13000 -64.32687  -0.00260   0.00000  -0.00258  -3.13258
   D29       -2.58215-118.08837  -0.06551   0.00000  -0.06551  -2.64766
   D30       -2.90154  42.71258   0.07665   0.00000   0.07665  -2.82489
   D31        3.12904  50.04515   0.01473   0.00000   0.01477  -3.13938
   D32       -0.00482   5.03880   0.00392   0.00000   0.00388  -0.00094
   D33        0.06376 -34.30754  -0.00932   0.00000  -0.00928   0.05448
   D34       -3.08471   5.70234   0.00047   0.00000   0.00043  -3.08427
   D35       -0.16732  -0.28779  -0.01320   0.00000  -0.01320  -0.18052
   D36        2.42357-120.05584  -0.04612   0.00000  -0.04612   2.37744
   D37        2.94551   0.00659   0.01126   0.00000   0.01126   2.95677
   D38       -0.21128  -0.00787   0.00825   0.00000   0.00825  -0.20303
   D39       -0.09645   0.09782   0.01053   0.00000   0.01054  -0.08592
   D40        3.05856   0.11535   0.01322   0.00000   0.01322   3.07178
   D41        2.74590   0.00196  -0.00076   0.00000  -0.00076   2.74514
   D42       -0.00526   0.00020  -0.00085   0.00000  -0.00085  -0.00611
   D43        3.13922  -0.00006   0.00145   0.00000   0.00145   3.14066
   D44        0.79189  -0.00049   0.01192   0.00000   0.01192   0.80381
         Item               Value     Threshold  Converged?
 Maximum Force            ********     0.000450     NO 
 RMS     Force            ********     0.000300     NO 
 Maximum Displacement     1.324571     0.001800     NO 
 RMS     Displacement     0.520372     0.001200     NO 
 Predicted change in Energy=-1.715369D+01
 GradGradGradGradGradGradGradGradGradGradGradGradGradGradGradGradGradGrad

                          Input orientation:                          
 ---------------------------------------------------------------------
 Center     Atomic      Atomic             Coordinates (Angstroms)
 Number     Number       Type             X           Y           Z
 ---------------------------------------------------------------------
      1          6           0       -0.250657   -2.154354   -0.277477
      2          8           0       -0.716131   -1.055379    0.157144
      3          8           0        0.124749   -3.154749    0.478528
      4          1           0       -0.145573   -2.320030   -1.348638
      5          1           0        0.068115   -3.003006    1.502929
      6          6           0       -0.431493   -1.589932    3.478846
      7          8           0       -0.084029   -2.692749    3.003261
      8          8           0       -0.837813   -0.533342    2.781259
      9          1           0       -0.439930   -1.405708    4.551971
     10          1           0       -0.802787   -0.658837    1.776794
     11          6           0       -1.030849    0.259346   -2.892029
     12          8           0       -0.650734   -0.888813   -3.116552
     13          8           0       -1.200187    0.780422   -1.642986
     14          1           0       -1.275402    0.993497   -3.662050
     15          1           0       -0.979951    0.123591   -0.889937
     16          6           0       -1.451765    4.199605   -0.935714
     17          8           0       -0.211867    4.184730   -0.877855
     18          8           0       -2.235845    3.147241   -1.168414
     19          1           0       -2.033936    5.109243   -0.782059
     20          1           0       -1.757211    2.266674   -1.311974
     21          6           0        1.951974    1.589001   -0.168810
     22          8           0        0.857673    0.993115    0.016192
     23          8           0        2.025134    2.834584   -0.615734
     24          1           0        2.930676    1.145365    0.020727
     25          1           0        1.133519    3.289566   -0.750876
     26          6           0        2.033206   -2.024495    0.870801
     27          8           0        3.022699   -1.431723    0.412780
     28          8           0        0.810940   -1.480835    0.888142
     29          1           0        2.043260   -3.034564    1.284890
     30          1           0        0.816612   -0.506611    0.558803
     31          6           0        6.140593   -0.150561   -0.361699
     32          8           0        5.467813    0.898147   -0.299973
     33          8           0        5.824388   -1.434688   -0.024982
     34          1           0        7.166302   -0.178098   -0.733744
     35          1           0        4.900726   -1.591843    0.342201
 ---------------------------------------------------------------------
                    Distance matrix (angstroms):
                    1          2          3          4          5
     1  C    0.000000
     2  O    1.270160   0.000000
     3  O    1.308917   2.284233   0.000000
     4  H    1.088980   2.047500   2.026911   0.000000
     5  H    1.997917   2.493879   1.037126   2.939993   0.000000
     6  C    3.802793   3.376458   3.429281   4.890746   2.480047
     7  O    3.328795   3.343787   2.575133   4.368264   1.539611
     8  O    3.511167   2.678303   3.619512   4.552746   2.924735
     9  H    4.890794   4.417411   4.468886   5.978279   3.479386
    10  H    2.600278   1.669736   2.962329   3.599974   2.515671
    11  C    3.642874   3.335417   4.934786   3.133520   5.582681
    12  O    3.134007   3.278583   4.319773   2.330040   5.130902
    13  O    3.373297   2.616285   4.662816   3.288108   5.081309
    14  H    4.734385   4.370002   6.026006   4.196170   6.667389
    15  H    2.469010   1.598734   3.720292   2.622570   4.074293
    16  C    6.499902   5.417597   7.653235   6.662002   7.754652
    17  O    6.367570   5.365096   7.471348   6.522111   7.576944
    18  O    5.730763   4.661400   6.928196   5.856002   7.090123
    19  H    7.496301   6.373483   8.633804   7.686418   8.686103
    20  H    4.783866   3.778650   6.011614   4.861746   6.247001
    21  C    4.344664   3.770647   5.124546   4.590449   5.237382
    22  O    3.349806   2.587094   4.237419   3.721048   4.336217
    23  O    5.493919   4.821171   6.378165   5.640848   6.511230
    24  H    4.593251   4.261582   5.154978   4.831918   5.253586
    25  H    5.637048   4.808768   6.637639   5.784545   6.768396
    26  C    2.559578   3.001223   2.252457   3.124153   2.284437
    27  O    3.422501   3.766408   3.372130   3.732242   3.519506
    28  O    1.714434   1.745656   1.854894   2.573393   1.801876
    29  H    2.911669   3.578159   2.084551   3.498145   1.987394
    30  H    2.133890   1.676835   2.738203   2.802252   2.771933
    31  C    6.698534   6.935600   6.776541   6.722836   6.963352
    32  O    6.482219   6.501259   6.751323   6.554881   6.901173
    33  O    6.122732   6.554039   5.974782   6.178700   6.158637
    34  H    7.689282   7.980981   7.740383   7.643919   7.960344
    35  H    5.218925   5.645451   5.027049   5.371623   5.166507
                    6          7          8          9         10
     6  C    0.000000
     7  O    1.250247   0.000000
     8  O    1.329702   2.297937   0.000000
     9  H    1.088856   2.044907   2.013642   0.000000
    10  H    1.975292   2.481457   1.012880   2.896738   0.000000
    11  C    6.660864   6.660764   5.731650   7.650799   4.763715
    12  O    6.636181   6.405267   5.911474   7.688814   4.901106
    13  O    5.695843   5.907312   4.629387   6.613217   3.731526
    14  H    7.640594   7.709354   6.636184   8.597926   5.703910
    15  H    4.724747   4.887887   3.732217   5.678446   2.784786
    16  C    7.351736   8.055480   6.049265   7.909363   5.602083
    17  O    7.237113   7.898045   6.003426   7.796667   5.554862
    18  O    6.877028   7.492574   5.576835   7.528443   5.021368
    19  H    8.099511   8.888299   6.779875   8.569558   6.429168
    20  H    6.291493   6.783558   5.043801   7.043257   4.360049
    21  C    5.393693   5.704448   4.581502   6.080729   4.053006
    22  O    4.508221   4.836836   3.584737   5.292581   2.930152
    23  O    6.509758   6.935208   5.574851   7.124731   5.091691
    24  H    5.544783   5.719709   4.963880   6.196864   4.503072
    25  H    6.644494   7.166872   5.565676   7.255448   5.072305
    26  C    3.614621   3.078414   3.757145   4.477757   3.275469
    27  O    4.621388   4.237043   4.617395   5.396607   4.134274
    28  O    2.875289   2.596812   2.683285   3.872204   2.017299
    29  H    3.608990   2.755902   4.098270   4.415113   3.739790
    30  H    3.355294   3.400842   2.770766   4.281666   2.032025
    31  C    7.746863   7.518750   7.663084   8.307998   7.282995
    32  O    7.434502   7.391132   7.162686   7.984393   6.786573
    33  O    7.171956   6.757393   7.285077   7.758287   6.911424
    34  H    8.801459   8.535571   8.749132   9.343477   8.369007
    35  H    6.186364   5.756823   6.324576   6.802897   5.954713
                   11         12         13         14         15
    11  C    0.000000
    12  O    1.230109   0.000000
    13  O    1.363930   2.293391   0.000000
    14  H    1.091657   2.056908   2.031669   0.000000
    15  H    2.007335   2.468027   1.023237   2.920383   0.000000
    16  C    4.419274   5.593720   3.500619   4.212261   4.103485
    17  O    4.487346   5.562842   3.626502   4.366557   4.133153
    18  O    3.572507   4.753688   2.626716   3.432097   3.285921
    19  H    5.383276   6.583296   4.491661   5.080264   5.096984
    20  H    2.655851   3.799723   1.621354   2.715875   2.318416
    21  C    4.252192   4.647884   3.572550   4.793047   3.356134
    22  O    3.544388   3.953610   2.651962   4.251997   2.225760
    23  O    4.599174   5.222839   3.959486   4.854192   4.056502
    24  H    4.996285   5.177537   4.468239   5.592584   4.143228
    25  H    4.295493   5.122386   3.540883   4.421512   3.809133
    26  C    5.363138   4.938854   4.964022   6.371961   4.097997
    27  O    5.496611   5.122991   5.191583   6.399969   4.487458
    28  O    4.550836   4.304015   3.945190   5.583850   2.990491
    29  H    6.143830   5.588787   5.800563   7.191036   4.882993
    30  H    3.988489   3.975854   3.251431   4.943930   2.392413
    31  C    7.615784   7.365890   7.509692   8.197448   7.145371
    32  O    7.025626   6.968712   6.802923   7.535489   6.520862
    33  O    7.621285   7.196039   7.541174   8.338547   7.033876
    34  H    8.487806   8.202984   8.470161   9.011658   8.153334
    35  H    7.005050   6.578444   6.840304   7.801446   6.248459
                   16         17         18         19         20
    16  C    0.000000
    17  O    1.241336   0.000000
    18  O    1.332816   2.292879   0.000000
    19  H    1.090860   2.045443   2.009848   0.000000
    20  H    1.992759   2.501097   1.012471   2.904752   0.000000
    21  C    4.357617   3.452935   4.578771   5.353098   3.940066
    22  O    4.064629   3.482763   3.951380   5.093242   3.197436
    23  O    3.748932   2.625981   4.308033   4.655941   3.887597
    24  H    5.426689   4.463269   5.666966   6.403450   5.000971
    25  H    2.747004   1.620959   3.398119   3.653077   3.117285
    26  C    7.358528   6.830272   7.009282   8.376384   6.127471
    27  O    7.317863   6.608533   7.149781   8.353529   6.284939
    28  O    6.380727   6.021919   5.910279   7.369668   5.047745
    29  H    8.335435   7.866465   7.908486   9.339026   7.020713
    30  H    5.433929   5.013027   5.064721   6.439049   4.220839
    31  C    8.769112   7.708107   9.038307   9.729602   8.313925
    32  O    7.693136   6.587438   8.072109   8.616378   7.422801
    33  O    9.247545   8.291057   9.341781  10.254241   8.534464
    34  H    9.668307   8.572772   9.982344  10.611442   9.270402
    35  H    8.690689   7.809990   8.698938   9.708659   7.870996
                   21         22         23         24         25
    21  C    0.000000
    22  O    1.259682   0.000000
    23  O    1.325357   2.270089   0.000000
    24  H    1.091144   2.078591   2.019543   0.000000
    25  H    1.974990   2.436836   1.010073   2.902196   0.000000
    26  C    3.760950   3.349359   5.081388   3.402365   5.628366
    27  O    3.257219   3.274822   4.500484   2.608363   5.216672
    28  O    3.441366   2.623530   4.728504   3.484626   5.054420
    29  H    4.847570   4.386047   6.169247   4.456166   6.705713
    30  H    2.491999   1.595397   3.742145   2.736388   4.028231
    31  C    4.539582   5.418490   5.090444   3.482705   6.087422
    32  O    3.585471   4.621944   3.962516   2.569246   4.970744
    33  O    4.915178   5.528488   5.745434   3.877155   6.696995
    34  H    5.534529   6.460104   5.960016   4.501256   6.958409
    35  H    4.367384   4.809840   5.364693   3.387735   6.262173
                   26         27         28         29         30
    26  C    0.000000
    27  O    1.241071   0.000000
    28  O    1.337835   2.262799   0.000000
    29  H    1.091701   2.070984   2.022399   0.000000
    30  H    1.970131   2.396659   1.028401   2.902140   0.000000
    31  C    4.679884   3.458679   5.633554   5.274169   5.414690
    32  O    4.659299   3.451796   5.362615   5.450281   4.934016
    33  O    3.939970   2.835685   5.096135   4.309558   5.126398
    34  H    5.686161   4.478341   6.687172   6.203212   6.488233
    35  H    2.947758   1.886162   4.127557   3.336947   4.231387
                   31         32         33         34         35
    31  C    0.000000
    32  O    1.247490   0.000000
    33  O    1.364678   2.375897   0.000000
    34  H    1.091447   2.057019   1.970303   0.000000
    35  H    2.027323   2.633254   1.006316   2.879091   0.000000
 Stoichiometry    C7H14O14
 Framework group  C1[X(C7H14O14)]
 Deg. of freedom    99
 Full point group                 C1      NOp   1
 Largest Abelian subgroup         C1      NOp   1
 Largest concise Abelian subgroup C1      NOp   1
                         Standard orientation:                         
 ---------------------------------------------------------------------
 Center     Atomic      Atomic             Coordinates (Angstroms)
 Number     Number       Type             X           Y           Z
 ---------------------------------------------------------------------
      1          6           0       -0.348663   -2.021931    1.373011
      2          8           0        0.523289   -1.810884    0.473864
      3          8           0       -1.447978   -2.710259    1.197016
      4          1           0       -0.207834   -1.625260    2.377350
      5          1           0       -1.619435   -3.064809    0.237575
      6          6           0       -0.992676   -3.299193   -2.150494
      7          8           0       -1.766523   -3.574279   -1.207834
      8          8           0        0.145805   -2.619372   -2.051439
      9          1           0       -1.195329   -3.620953   -3.170792
     10          1           0        0.343095   -2.270577   -1.121200
     11          6           0        2.444371    0.040612    2.475468
     12          8           0        1.544681   -0.342712    3.221652
     13          8           0        2.509943   -0.245739    1.143549
     14          1           0        3.291837    0.652988    2.789334
     15          1           0        1.731627   -0.818517    0.807150
     16          6           0        4.519466    1.463043   -1.157802
     17          8           0        3.566411    2.251154   -1.264959
     18          8           0        4.549562    0.372827   -0.391692
     19          1           0        5.449555    1.590457   -1.713387
     20          1           0        3.711162    0.191168    0.146065
     21          6           0        0.196087    1.757708   -0.699108
     22          8           0        0.605380    0.582174   -0.505724
     23          8           0        1.013972    2.773327   -0.936075
     24          1           0       -0.855466    2.048908   -0.693235
     25          1           0        1.991011    2.525022   -0.999216
     26          6           0       -2.319825   -0.890794    0.195519
     27          8           0       -2.571598    0.323442    0.245493
     28          8           0       -1.088124   -1.363431   -0.026582
     29          1           0       -3.050271   -1.689277    0.339342
     30          1           0       -0.415878   -0.611349   -0.226747
     31          6           0       -3.911883    3.509245    0.116065
     32          8           0       -2.804152    3.701604   -0.424456
     33          8           0       -4.538247    2.352797    0.480266
     34          1           0       -4.584759    4.320854    0.398525
     35          1           0       -4.049950    1.494006    0.288651
 ---------------------------------------------------------------------
 Rotational constants (GHZ):      0.2442390      0.1929584      0.1418293
 Standard basis: 6-31G (6D, 7F)
 There are   217 symmetry adapted basis functions of A   symmetry.
 Integral buffers will be    131072 words long.
 Raffenetti 2 integral format.
 Two-electron integral symmetry is turned on.
   217 basis functions,   518 primitive gaussians,   217 cartesian basis functions
    84 alpha electrons       84 beta electrons
       nuclear repulsion energy      1899.1282016996 Hartrees.
 NAtoms=   35 NActive=   35 NUniq=   35 SFac= 7.50D-01 NAtFMM=   80 NAOKFM=F Big=F
 One-electron integrals computed using PRISM.
 NBasis=   217 RedAO= T  NBF=   217
 NBsUse=   217 1.00D-06 NBFU=   217
 Initial guess read from the read-write file.
 B after Tr=     0.000000    0.000000    0.000000
         Rot=    1.000000    0.000000    0.000000    0.000000 Ang=   0.00 deg.
 Initial guess orbital symmetries:
       Occupied  (A) (A) (A) (A) (A) (A) (A) (A) (A) (A) (A) (A)
                 (A) (A) (A) (A) (A) (A) (A) (A) (A) (A) (A) (A)
                 (A) (A) (A) (A) (A) (A) (A) (A) (A) (A) (A) (A)
                 (A) (A) (A) (A) (A) (A) (A) (A) (A) (A) (A) (A)
                 (A) (A) (A) (A) (A) (A) (A) (A) (A) (A) (A) (A)
                 (A) (A) (A) (A) (A) (A) (A) (A) (A) (A) (A) (A)
                 (A) (A) (A) (A) (A) (A) (A) (A) (A) (A) (A) (A)
       Virtual   (A) (A) (A) (A) (A) (A) (A) (A) (A) (A) (A) (A)
                 (A) (A) (A) (A) (A) (A) (A) (A) (A) (A) (A) (A)
                 (A) (A) (A) (A) (A) (A) (A) (A) (A) (A) (A) (A)
                 (A) (A) (A) (A) (A) (A) (A) (A) (A) (A) (A) (A)
                 (A) (A) (A) (A) (A) (A) (A) (A) (A) (A) (A) (A)
                 (A) (A) (A) (A) (A) (A) (A) (A) (A) (A) (A) (A)
                 (A) (A) (A) (A) (A) (A) (A) (A) (A) (A) (A) (A)
                 (A) (A) (A) (A) (A) (A) (A) (A) (A) (A) (A) (A)
                 (A) (A) (A) (A) (A) (A) (A) (A) (A) (A) (A) (A)
                 (A) (A) (A) (A) (A) (A) (A) (A) (A) (A) (A) (A)
                 (A) (A) (A) (A) (A) (A) (A) (A) (A) (A) (A) (A)
                 (A)
 Harris functional with IExCor=  402 diagonalized for initial guess.
 ExpMin= 1.61D-01 ExpMax= 5.48D+03 ExpMxC= 8.25D+02 IAcc=1 IRadAn=         1 AccDes= 0.00D+00
 HarFok:  IExCor=  402 AccDes= 0.00D+00 IRadAn=         1 IDoV= 1
 ScaDFX=  1.000000  1.000000  1.000000  1.000000
 FoFCou: FMM=F IPFlag=           0 FMFlag=      100000 FMFlg1=           0
         NFxFlg=           0 DoJE=T BraDBF=F KetDBF=T FulRan=T
         Omega=  0.000000  0.000000  1.000000  0.000000  0.000000 ICntrl=     500 IOpCl=  0
         NMat0=    1 NMatS0=    1 NMatT0=    0 NMatD0=    1 NMtDS0=    0 NMtDT0=    0
         I1Cent=           4 NGrid=           0.
 Petite list used in FoFCou.
 Requested convergence on RMS density matrix=1.00D-08 within 128 cycles.
 Requested convergence on MAX density matrix=1.00D-06.
 Requested convergence on             energy=1.00D-06.
 No special actions if energy rises.
 Keep R1 ints in memory in canonical form, NReq=285387597.
 Integral accuracy reduced to 1.0D-05 until final iterations.
