10
  This energy is 0.000153723 and Call times are: 2778
C	0.40851	0.0949421	0.0677936
O	0.353372	-0.400758	-1.04418
O	-0.711853	0.259049	0.851327
H	1.33955	0.448584	0.535783
H	-0.514252	0.669987	1.71775
C	11.1177	0.0157323	0.0757232
O	10.9729	-0.716446	-0.887699
O	10.0498	0.614355	0.705979
H	12.095	0.259107	0.519255
H	10.3187	1.17382	1.46314
