10
  This energy is -0.00236358 and Call times are: 1749
C	0.0773653	-0.356463	-0.217806
O	-0.909272	0.146781	-0.726273
O	0.723332	0.221065	0.852362
H	0.531173	-1.29825	-0.561318
H	1.49866	-0.295396	1.15358
C	3.62789	0.132297	-0.397225
O	3.99559	1.11209	0.227312
O	3.51098	-1.10754	0.190307
H	3.36179	0.150232	-1.46483
H	3.20551	-1.79767	-0.433398
