10
  This energy is -0.00828237 and Call times are: 1536
C	-0.00559402	0.346033	-0.246415
O	-0.645841	-0.505104	-0.838781
O	0.573234	0.104169	0.979362
H	0.163864	1.36334	-0.630187
H	1.05507	0.879621	1.33308
C	3.68797	-0.380303	0.0229629
O	3.47183	-0.0365465	1.17203
O	3.34015	0.405638	-1.05285
H	4.17059	-1.33018	-0.252208
H	3.57527	0.00063456	-1.91267
