29
  This energy is -0.00823731 and Call times are: 946
C	-1.12708	-0.38725	-0.268002
N	-2.34347	-1.10514	-0.340832
H	-2.47215	-1.96276	0.215351
H	-3.11032	-0.780036	-0.947776
N	-0.126308	-0.831227	0.538358
C	1.05198	-0.159855	0.626243
O	1.93383	-0.576964	1.35547
N	1.24676	0.98586	-0.105754
C	0.267248	1.45743	-0.921701
H	2.15275	1.50269	-0.0386127
C	-0.945302	0.777221	-1.01985
H	0.427834	2.36124	-1.49578
H	-1.72858	1.14897	-1.66847
C	5.56131	1.29916	0.0602061
O	4.84348	2.13327	0.0299698
N	6.84137	1.48	0.452503
C	7.70658	0.441516	0.544968
H	7.13825	2.40472	0.723615
N	8.99166	0.644857	1.097
H	9.37487	1.61315	0.811492
H	9.66475	-0.123848	0.745914
N	7.35312	-0.814662	0.195075
C	6.09602	-1.02736	-0.22902
C	5.17557	0.00703297	-0.282929
N	3.98789	-0.513652	-0.644173
C	4.14159	-1.84326	-0.81552
N	5.42946	-2.14755	-0.555888
H	3.36892	-2.53782	-1.12614
H	5.83207	-3.07098	-0.595977
