18
  This energy is -1.2594 and Call times are: 144
C	0.687842	0.232469	-0.87134
C	-0.639897	-0.0309403	-1.03897
C	-1.15903	-0.271628	0.269724
C	-0.102702	-0.134052	1.12155
O	1.03316	0.173771	0.441794
H	1.48273	0.472865	-1.59633
H	-1.19776	-0.0534911	-1.98891
H	-2.19943	-0.517896	0.536215
H	-0.0301419	-0.228549	2.21748
C	4.78683	0.0584301	-1.13991
C	5.00021	-1.00315	-0.286295
N	4.54392	-0.72763	0.95966
C	4.04936	0.500203	0.879302
N	4.17206	1.01734	-0.366133
H	5.02115	0.194821	-2.20764
H	5.47522	-1.96293	-0.547117
H	3.58576	1.0679	1.70212
H	3.85859	1.96768	-0.682105
