18
  This energy is -2.6674 and Call times are: 661
C	-0.421562	-0.858622	0.60947
C	-0.347446	0.414059	1.09441
C	0.231075	1.19751	0.0495934
C	0.459415	0.334426	-0.981579
O	0.0668339	-0.925556	-0.657021
H	-0.795983	-1.79222	1.06053
H	-0.668006	0.765855	2.08817
H	0.448247	2.27752	0.0722164
H	0.889949	0.490923	-1.98428
C	3.31244	-0.973694	0.535544
C	4.15003	-0.908222	-0.557748
N	4.39113	0.377345	-0.912286
C	3.70572	1.10663	-0.0422474
N	3.0385	0.338376	0.851171
H	2.9055	-1.83248	1.09271
H	4.5847	-1.76556	-1.09708
H	3.65749	2.20714	-0.014022
H	2.4287	0.677596	1.63496
