44
  This energy is -3.8899 and Call times are: 3972
C	-0.145019	-0.308918	-3.46356
C	-0.789888	-0.13509	-2.14255
O	-1.97086	0.17011	-2.04992
H	-0.887776	-0.103324	-4.26476
H	0.22481	-1.34987	-3.57488
H	0.704309	0.398351	-3.57082
N	-0.0136643	-0.326892	-1.0734
C	-0.487427	-0.152186	0.276999
C	0.690512	0.253397	1.14275
O	1.83739	0.22179	0.700712
H	0.955976	-0.534857	-1.16514
H	-1.20173	0.661294	0.302539
C	-1.12834	-1.45259	0.80938
H	-0.392837	-2.28494	0.793265
H	-1.50952	-1.32679	1.8435
H	-1.9828	-1.73473	0.156206
N	0.431494	0.654709	2.40286
C	1.4884	1.06437	3.29801
H	-0.503432	0.677447	2.74119
H	1.07385	1.35862	4.28735
H	2.04377	1.93412	2.87802
H	2.21457	0.234162	3.45477
C	8.01676	2.08803	-1.617
C	7.54518	1.35369	-0.421378
O	8.25436	1.23323	0.568046
H	9.05338	2.44904	-1.44111
H	7.36033	2.96176	-1.81307
H	8.01489	1.41838	-2.5028
N	6.31638	0.836153	-0.489183
C	5.73636	0.0591114	0.577749
C	4.74663	-0.916059	-0.0313838
O	4.43426	-0.837599	-1.21797
H	5.76685	0.907476	-1.3167
H	6.51211	-0.52542	1.05646
C	5.03371	0.972192	1.60625
H	4.23076	1.56435	1.11772
H	4.59496	0.386712	2.44005
H	5.77499	1.68257	2.0331
N	4.23381	-1.86955	0.771035
C	3.28914	-2.84463	0.278092
H	4.50182	-1.91949	1.72746
H	2.98547	-3.54289	1.08893
H	3.73663	-3.44172	-0.549262
H	2.37478	-2.34298	-0.113612
