44
  This energy is -3.7064 and Call times are: 4307
C	-1.94786	-2.87898	-0.173235
C	-1.20149	-1.77026	-0.80949
O	-0.966885	-1.77206	-2.01006
H	-2.20241	-3.63968	-0.94292
H	-2.88716	-2.49771	0.279646
H	-1.32626	-3.35722	0.612888
N	-0.803645	-0.783187	-0.00339842
C	-0.0312294	0.341698	-0.468765
C	0.816798	0.842905	0.685009
O	0.650754	0.40933	1.8235
H	-0.966581	-0.815875	0.978564
H	0.645573	0.0126724	-1.24743
C	-0.952848	1.46536	-0.991482
H	-1.64023	1.81056	-0.189992
H	-0.369525	2.3316	-1.36551
H	-1.56959	1.07397	-1.82981
N	1.75771	1.76864	0.413464
C	2.6156	2.30014	1.44676
H	1.87981	2.10425	-0.51472
H	3.3224	3.04824	1.02485
H	3.20945	1.48581	1.92162
H	2.01277	2.79627	2.24148
C	5.80253	-1.25609	3.22711
C	6.44742	-1.24665	1.89476
O	7.47278	-1.87938	1.68331
H	6.40354	-1.88242	3.92163
H	4.77938	-1.68103	3.15404
H	5.74574	-0.223691	3.63208
N	5.85088	-0.513509	0.951877
C	6.38314	-0.371947	-0.380493
C	5.94391	0.974333	-0.924718
O	5.12126	1.65985	-0.320559
H	5.03944	0.028742	1.15036
H	7.46498	-0.363677	-0.33397
C	5.88916	-1.51341	-1.29608
H	4.77972	-1.51577	-1.35253
H	6.30323	-1.42334	-2.32124
H	6.21508	-2.48926	-0.874382
N	6.49308	1.38985	-2.08307
C	6.14013	2.65949	-2.67434
H	7.16008	0.823017	-2.55517
H	6.69802	2.82012	-3.62312
H	6.38126	3.49673	-1.97995
H	5.04941	2.69944	-2.89764
