 Entering Gaussian System, Link 0=g09
 Input=chooh-pair-s-6.gjf
 Output=chooh-pair-s-6.log
 Initial command:
 /usr/g09/l1.exe /scratch/litao/gaussian/Gau-21820.inp -scrdir=/scratch/litao/gaussian/
 Entering Link 1 = /usr/g09/l1.exe PID=     21821.
  
 Copyright (c) 1988,1990,1992,1993,1995,1998,2003,2009, Gaussian, Inc.
                  All Rights Reserved.
  
 This is part of the Gaussian(R) 09 program.  It is based on
 the Gaussian(R) 03 system (copyright 2003, Gaussian, Inc.),
 the Gaussian(R) 98 system (copyright 1998, Gaussian, Inc.),
 the Gaussian(R) 94 system (copyright 1995, Gaussian, Inc.),
 the Gaussian 92(TM) system (copyright 1992, Gaussian, Inc.),
 the Gaussian 90(TM) system (copyright 1990, Gaussian, Inc.),
 the Gaussian 88(TM) system (copyright 1988, Gaussian, Inc.),
 the Gaussian 86(TM) system (copyright 1986, Carnegie Mellon
 University), and the Gaussian 82(TM) system (copyright 1983,
 Carnegie Mellon University). Gaussian is a federally registered
 trademark of Gaussian, Inc.
  
 This software contains proprietary and confidential information,
 including trade secrets, belonging to Gaussian, Inc.
  
 This software is provided under written license and may be
 used, copied, transmitted, or stored only in accord with that
 written license.
  
 The following legend is applicable only to US Government
 contracts under FAR:
  
                    RESTRICTED RIGHTS LEGEND
  
 Use, reproduction and disclosure by the US Government is
 subject to restrictions as set forth in subparagraphs (a)
 and (c) of the Commercial Computer Software - Restricted
 Rights clause in FAR 52.227-19.
  
 Gaussian, Inc.
 340 Quinnipiac St., Bldg. 40, Wallingford CT 06492
  
  
 ---------------------------------------------------------------
 Warning -- This program may not be used in any manner that
 competes with the business of Gaussian, Inc. or will provide
 assistance to any competitor of Gaussian, Inc.  The licensee
 of this program is prohibited from giving any competitor of
 Gaussian, Inc. access to this program.  By using this program,
 the user acknowledges that Gaussian, Inc. is engaged in the
 business of creating and licensing software in the field of
 computational chemistry and represents and warrants to the
 licensee that it is not a competitor of Gaussian, Inc. and that
 it will not use this program in any manner prohibited above.
 ---------------------------------------------------------------
  

 Cite this work as:
 Gaussian 09, Revision A.01,
 M. J. Frisch, G. W. Trucks, H. B. Schlegel, G. E. Scuseria, 
 M. A. Robb, J. R. Cheeseman, G. Scalmani, V. Barone, B. Mennucci, 
 G. A. Petersson, H. Nakatsuji, M. Caricato, X. Li, H. P. Hratchian, 
 A. F. Izmaylov, J. Bloino, G. Zheng, J. L. Sonnenberg, M. Hada, 
 M. Ehara, K. Toyota, R. Fukuda, J. Hasegawa, M. Ishida, T. Nakajima, 
 Y. Honda, O. Kitao, H. Nakai, T. Vreven, J. A. Montgomery, Jr., 
 J. E. Peralta, F. Ogliaro, M. Bearpark, J. J. Heyd, E. Brothers, 
 K. N. Kudin, V. N. Staroverov, R. Kobayashi, J. Normand, 
 K. Raghavachari, A. Rendell, J. C. Burant, S. S. Iyengar, J. Tomasi, 
 M. Cossi, N. Rega, J. M. Millam, M. Klene, J. E. Knox, J. B. Cross, 
 V. Bakken, C. Adamo, J. Jaramillo, R. Gomperts, R. E. Stratmann, 
 O. Yazyev, A. J. Austin, R. Cammi, C. Pomelli, J. W. Ochterski, 
 R. L. Martin, K. Morokuma, V. G. Zakrzewski, G. A. Voth, 
 P. Salvador, J. J. Dannenberg, S. Dapprich, A. D. Daniels, 
 O. Farkas, J. B. Foresman, J. V. Ortiz, J. Cioslowski, 
 and D. J. Fox, Gaussian, Inc., Wallingford CT, 2009.
 
 ******************************************
 Gaussian 09:  EM64L-G09RevA.01  8-May-2009
                11-May-2015 
 ******************************************
 %nprocshared=8
 Will use up to    8 processors via shared memory.
 %mem=8GB
 %chk=chooh-pair-s-6.chk
 ----------------
 #opt b3lyp/6-31g
 ----------------
 1/14=-1,18=20,19=15,26=3,38=1/1,3;
 2/9=110,12=2,17=6,18=5,40=1/2;
 3/5=1,6=6,11=2,16=1,25=1,30=1,71=1,74=-5/1,2,3;
 4//1;
 5/5=2,38=5/2;
 6/7=2,8=2,9=2,10=2,28=1/1;
 7//1,2,3,16;
 1/14=-1,18=20,19=15/3(2);
 2/9=110/2;
 99//99;
 2/9=110/2;
 3/5=1,6=6,11=2,16=1,25=1,30=1,71=1,74=-5/1,2,3;
 4/5=5,16=3/1;
 5/5=2,38=5/2;
 7//1,2,3,16;
 1/14=-1,18=20,19=15/3(-5);
 2/9=110/2;
 6/7=2,8=2,9=2,10=2,19=2,28=1/1;
 99/9=1/99;
 -------------------
 Title Card Required
 -------------------
 Symbolic Z-matrix:
 Charge =  0 Multiplicity = 1
 C                     0.52043   2.03682   0.63051 
 O                    -0.1744    1.53463  -0.30542 
 O                     1.53552   2.84964   0.44133 
 H                     0.28742   1.82825   1.66941 
 H                     1.77691   3.04215  -0.53705 
 C                     1.37411   2.72622  -3.01965 
 O                     2.0299    3.24555  -2.09105 
 O                     0.33121   1.91229  -2.87372 
 H                     1.61571   2.90805  -4.06602 
 H                     0.08402   1.72557  -1.90347 
 C                    -2.11668  -0.12754   1.86773 
 O                    -1.65522   0.77381   2.56341 
 O                    -1.82622  -0.30956   0.54612 
 H                    -2.81862  -0.88651   2.22083 
 H                    -1.15642   0.37104   0.17828 
 C                    -1.5775   -3.51546  -0.77771 
 O                    -0.50516  -3.58204  -0.15716 
 O                    -2.41726  -2.47849  -0.81114 
 H                    -1.95236  -4.34339  -1.38199 
 H                    -2.14756  -1.65612  -0.28152 
 C                     1.82388  -1.58078   1.5866 
 O                     1.14228  -0.62502   1.19017 
 O                     1.57287  -2.87807   1.35251 
 H                     2.72916  -1.46915   2.18808 
 H                     0.76116  -3.0605    0.79083 
 C                     4.45962   0.11258  -0.15898 
 O                     4.51976  -0.65649   0.78691 
 O                     3.28254   0.53337  -0.62041 
 H                     5.37907   0.45796  -0.63019 
 H                     2.56839   0.15562  -0.11934 
 

 GradGradGradGradGradGradGradGradGradGradGradGradGradGradGradGradGradGrad
 Berny optimization.
 Initialization pass.
                           ----------------------------
                           !    Initial Parameters    !
                           ! (Angstroms and Degrees)  !
 --------------------------                            --------------------------
 ! Name  Definition              Value          Derivative Info.                !
 --------------------------------------------------------------------------------
 ! R1    R(1,2)                  1.2692         estimate D2E/DX2                !
 ! R2    R(1,3)                  1.3141         estimate D2E/DX2                !
 ! R3    R(1,4)                  1.085          estimate D2E/DX2                !
 ! R4    R(2,10)                 1.63           estimate D2E/DX2                !
 ! R5    R(2,15)                 1.5976         estimate D2E/DX2                !
 ! R6    R(3,5)                  1.0259         estimate D2E/DX2                !
 ! R7    R(5,7)                  1.5875         estimate D2E/DX2                !
 ! R8    R(6,7)                  1.2498         estimate D2E/DX2                !
 ! R9    R(6,8)                  1.3309         estimate D2E/DX2                !
 ! R10   R(6,9)                  1.0892         estimate D2E/DX2                !
 ! R11   R(8,10)                 1.0185         estimate D2E/DX2                !
 ! R12   R(11,12)                1.2286         estimate D2E/DX2                !
 ! R13   R(11,13)                1.3653         estimate D2E/DX2                !
 ! R14   R(11,14)                1.0924         estimate D2E/DX2                !
 ! R15   R(13,15)                1.0233         estimate D2E/DX2                !
 ! R16   R(13,20)                1.6129         estimate D2E/DX2                !
 ! R17   R(16,17)                1.2407         estimate D2E/DX2                !
 ! R18   R(16,18)                1.3348         estimate D2E/DX2                !
 ! R19   R(16,19)                1.0914         estimate D2E/DX2                !
 ! R20   R(17,25)                1.6656         estimate D2E/DX2                !
 ! R21   R(18,20)                1.0147         estimate D2E/DX2                !
 ! R22   R(21,22)                1.239          estimate D2E/DX2                !
 ! R23   R(21,23)                1.3419         estimate D2E/DX2                !
 ! R24   R(21,24)                1.0926         estimate D2E/DX2                !
 ! R25   R(21,30)                2.5455         estimate D2E/DX2                !
 ! R26   R(22,30)                2.0876         estimate D2E/DX2                !
 ! R27   R(23,25)                1.0038         estimate D2E/DX2                !
 ! R28   R(24,27)                2.4145         estimate D2E/DX2                !
 ! R29   R(26,27)                1.2206         estimate D2E/DX2                !
 ! R30   R(26,28)                1.3325         estimate D2E/DX2                !
 ! R31   R(26,29)                1.0894         estimate D2E/DX2                !
 ! R32   R(28,30)                0.9507         estimate D2E/DX2                !
 ! A1    A(2,1,3)              124.1562         estimate D2E/DX2                !
 ! A2    A(2,1,4)              120.828          estimate D2E/DX2                !
 ! A3    A(3,1,4)              115.0027         estimate D2E/DX2                !
 ! A4    A(1,2,10)             126.1423         estimate D2E/DX2                !
 ! A5    A(1,2,15)             113.6674         estimate D2E/DX2                !
 ! A6    A(10,2,15)            118.659          estimate D2E/DX2                !
 ! A7    A(1,3,5)              115.7917         estimate D2E/DX2                !
 ! A8    A(7,6,8)              125.7178         estimate D2E/DX2                !
 ! A9    A(7,6,9)              121.8719         estimate D2E/DX2                !
 ! A10   A(8,6,9)              112.4103         estimate D2E/DX2                !
 ! A11   A(5,7,6)              126.1877         estimate D2E/DX2                !
 ! A12   A(6,8,10)             114.0001         estimate D2E/DX2                !
 ! A13   A(2,10,8)             173.659          estimate D2E/DX2                !
 ! A14   A(12,11,13)           124.4734         estimate D2E/DX2                !
 ! A15   A(12,11,14)           124.6129         estimate D2E/DX2                !
 ! A16   A(13,11,14)           110.9126         estimate D2E/DX2                !
 ! A17   A(11,13,15)           113.4869         estimate D2E/DX2                !
 ! A18   A(11,13,20)           124.4449         estimate D2E/DX2                !
 ! A19   A(15,13,20)           120.0803         estimate D2E/DX2                !
 ! A20   A(17,16,18)           126.7243         estimate D2E/DX2                !
 ! A21   A(17,16,19)           122.2127         estimate D2E/DX2                !
 ! A22   A(18,16,19)           111.0628         estimate D2E/DX2                !
 ! A23   A(16,17,25)           157.6601         estimate D2E/DX2                !
 ! A24   A(16,18,20)           116.7027         estimate D2E/DX2                !
 ! A25   A(22,21,23)           125.9447         estimate D2E/DX2                !
 ! A26   A(22,21,24)           123.5811         estimate D2E/DX2                !
 ! A27   A(23,21,24)           110.4742         estimate D2E/DX2                !
 ! A28   A(23,21,30)           126.6735         estimate D2E/DX2                !
 ! A29   A(24,21,30)            93.2621         estimate D2E/DX2                !
 ! A30   A(21,23,25)           115.1226         estimate D2E/DX2                !
 ! A31   A(21,24,27)           109.2311         estimate D2E/DX2                !
 ! A32   A(17,25,23)           171.953          estimate D2E/DX2                !
 ! A33   A(27,26,28)           120.7219         estimate D2E/DX2                !
 ! A34   A(27,26,29)           119.5639         estimate D2E/DX2                !
 ! A35   A(28,26,29)           119.7142         estimate D2E/DX2                !
 ! A36   A(24,27,26)           128.7001         estimate D2E/DX2                !
 ! A37   A(26,28,30)           110.8295         estimate D2E/DX2                !
 ! A38   A(21,30,28)           147.5643         estimate D2E/DX2                !
 ! A39   A(22,30,28)           172.9263         estimate D2E/DX2                !
 ! A40   L(3,5,7,1,-1)         174.2842         estimate D2E/DX2                !
 ! A41   L(2,15,13,11,-1)      175.5229         estimate D2E/DX2                !
 ! A42   L(13,20,18,16,-1)     183.981          estimate D2E/DX2                !
 ! A43   L(3,5,7,1,-2)         179.9128         estimate D2E/DX2                !
 ! A44   L(2,15,13,11,-2)      175.4385         estimate D2E/DX2                !
 ! A45   L(13,20,18,16,-2)     178.3063         estimate D2E/DX2                !
 ! D1    D(3,1,2,10)             3.2356         estimate D2E/DX2                !
 ! D2    D(3,1,2,15)           168.8234         estimate D2E/DX2                !
 ! D3    D(4,1,2,10)          -178.1452         estimate D2E/DX2                !
 ! D4    D(4,1,2,15)           -12.5574         estimate D2E/DX2                !
 ! D5    D(2,1,3,5)             -2.346          estimate D2E/DX2                !
 ! D6    D(4,1,3,5)            178.9623         estimate D2E/DX2                !
 ! D7    D(1,2,10,8)            -2.1722         estimate D2E/DX2                !
 ! D8    D(15,2,10,8)         -167.1147         estimate D2E/DX2                !
 ! D9    D(1,2,13,11)           24.3079         estimate D2E/DX2                !
 ! D10   D(1,2,13,20)         -141.8262         estimate D2E/DX2                !
 ! D11   D(10,2,13,11)        -167.2986         estimate D2E/DX2                !
 ! D12   D(10,2,13,20)          26.5673         estimate D2E/DX2                !
 ! D13   D(1,3,7,6)              0.2489         estimate D2E/DX2                !
 ! D14   D(8,6,7,5)              0.604          estimate D2E/DX2                !
 ! D15   D(9,6,7,5)           -179.4318         estimate D2E/DX2                !
 ! D16   D(7,6,8,10)            -0.0335         estimate D2E/DX2                !
 ! D17   D(9,6,8,10)           179.9994         estimate D2E/DX2                !
 ! D18   D(6,8,10,2)             0.0968         estimate D2E/DX2                !
 ! D19   D(12,11,13,15)          1.469          estimate D2E/DX2                !
 ! D20   D(12,11,13,20)        165.3551         estimate D2E/DX2                !
 ! D21   D(14,11,13,15)       -178.8944         estimate D2E/DX2                !
 ! D22   D(14,11,13,20)        -15.0083         estimate D2E/DX2                !
 ! D23   D(11,13,18,16)        -85.1655         estimate D2E/DX2                !
 ! D24   D(15,13,18,16)         79.6448         estimate D2E/DX2                !
 ! D25   D(18,16,17,25)         -4.3674         estimate D2E/DX2                !
 ! D26   D(19,16,17,25)        175.8193         estimate D2E/DX2                !
 ! D27   D(17,16,18,20)          0.605          estimate D2E/DX2                !
 ! D28   D(19,16,18,20)       -179.5642         estimate D2E/DX2                !
 ! D29   D(16,17,25,23)        177.1676         estimate D2E/DX2                !
 ! D30   D(22,21,23,25)          1.002          estimate D2E/DX2                !
 ! D31   D(24,21,23,25)       -179.0533         estimate D2E/DX2                !
 ! D32   D(30,21,23,25)        -68.3354         estimate D2E/DX2                !
 ! D33   D(22,21,24,27)        -73.7953         estimate D2E/DX2                !
 ! D34   D(23,21,24,27)        106.2585         estimate D2E/DX2                !
 ! D35   D(30,21,24,27)        -25.0294         estimate D2E/DX2                !
 ! D36   D(23,21,30,28)        -80.4495         estimate D2E/DX2                !
 ! D37   D(24,21,30,28)         38.1878         estimate D2E/DX2                !
 ! D38   D(21,23,25,17)        167.6888         estimate D2E/DX2                !
 ! D39   D(21,24,27,26)         34.2622         estimate D2E/DX2                !
 ! D40   D(28,26,27,24)         -5.9569         estimate D2E/DX2                !
 ! D41   D(29,26,27,24)        174.0431         estimate D2E/DX2                !
 ! D42   D(27,26,28,30)         -0.0003         estimate D2E/DX2                !
 ! D43   D(29,26,28,30)        179.9997         estimate D2E/DX2                !
 ! D44   D(26,28,30,21)        -12.5902         estimate D2E/DX2                !
 ! D45   D(26,28,30,22)         42.5952         estimate D2E/DX2                !
 --------------------------------------------------------------------------------
 Trust Radius=3.00D-01 FncErr=1.00D-07 GrdErr=1.00D-06
 Number of steps in this run= 132 maximum allowed number of steps= 180.
 GradGradGradGradGradGradGradGradGradGradGradGradGradGradGradGradGradGrad

                          Input orientation:                          
 ---------------------------------------------------------------------
 Center     Atomic      Atomic             Coordinates (Angstroms)
 Number     Number       Type             X           Y           Z
 ---------------------------------------------------------------------
      1          6           0        0.520434    2.036820    0.630507
      2          8           0       -0.174399    1.534630   -0.305423
      3          8           0        1.535520    2.849640    0.441327
      4          1           0        0.287415    1.828250    1.669410
      5          1           0        1.776910    3.042150   -0.537046
      6          6           0        1.374110    2.726220   -3.019650
      7          8           0        2.029900    3.245550   -2.091050
      8          8           0        0.331214    1.912290   -2.873720
      9          1           0        1.615710    2.908050   -4.066020
     10          1           0        0.084019    1.725570   -1.903470
     11          6           0       -2.116680   -0.127539    1.867730
     12          8           0       -1.655220    0.773808    2.563410
     13          8           0       -1.826220   -0.309556    0.546123
     14          1           0       -2.818620   -0.886506    2.220830
     15          1           0       -1.156420    0.371036    0.178276
     16          6           0       -1.577500   -3.515460   -0.777710
     17          8           0       -0.505162   -3.582040   -0.157159
     18          8           0       -2.417260   -2.478490   -0.811136
     19          1           0       -1.952360   -4.343390   -1.381990
     20          1           0       -2.147560   -1.656120   -0.281515
     21          6           0        1.823880   -1.580780    1.586600
     22          8           0        1.142280   -0.625021    1.190170
     23          8           0        1.572870   -2.878070    1.352510
     24          1           0        2.729160   -1.469150    2.188080
     25          1           0        0.761156   -3.060500    0.790827
     26          6           0        4.459620    0.112575   -0.158980
     27          8           0        4.519760   -0.656492    0.786912
     28          8           0        3.282540    0.533373   -0.620411
     29          1           0        5.379070    0.457956   -0.630191
     30          1           0        2.568390    0.155620   -0.119337
 ---------------------------------------------------------------------
                    Distance matrix (angstroms):
                    1          2          3          4          5
     1  C    0.000000
     2  O    1.269233   0.000000
     3  O    1.314102   2.282698   0.000000
     4  H    1.084951   2.049256   2.027114   0.000000
     5  H    1.988115   2.476666   1.025935   2.925850   0.000000
     6  C    3.811520   3.344368   3.466936   4.896380   2.534834
     7  O    3.338621   3.312800   2.610381   4.380189   1.587547
     8  O    3.511541   2.644697   3.649454   4.544118   2.970971
     9  H    4.900616   4.385529   4.508439   5.985440   3.535198
    10  H    2.590053   1.630028   2.977996   3.580138   2.542908
    11  C    3.628986   3.355273   4.923087   3.105497   5.566859
    12  O    3.172504   3.316909   4.358112   2.384306   5.151477
    13  O    3.319546   2.618142   4.614412   3.209274   5.038823
    14  H    4.714260   4.385859   6.006992   4.161901   6.645232
    15  H    2.406489   1.597586   3.668680   2.536062   4.031248
    16  C    6.100182   5.262619   7.189676   6.166161   7.369683
    17  O    5.765748   5.129493   6.774148   5.765047   7.016556
    18  O    5.576415   4.625073   6.751452   5.658302   6.938563
    19  H    7.132456   6.234682   8.199358   7.239943   8.316705
    20  H    4.646265   3.751643   5.864252   4.677184   6.127030
    21  C    3.962337   4.156759   4.585131   3.740196   5.087589
    22  O    2.790217   2.938458   3.576125   2.641780   4.102947
    23  O    5.077899   5.027287   5.799854   4.888995   6.217802
    24  H    4.426774   4.865276   4.809144   4.135696   5.355830
    25  H    5.105519   4.815833   5.970891   4.989611   6.327507
    26  C    4.454570   4.849517   4.049970   4.867632   3.990273
    27  O    4.824210   5.294274   4.617151   4.986531   4.791247
    28  O    3.384432   3.612777   3.089411   3.986322   2.927086
    29  H    5.261988   5.666191   4.652008   5.752462   4.434218
    30  H    2.880157   3.075579   2.939202   3.346663   3.022082
                    6          7          8          9         10
     6  C    0.000000
     7  O    1.249825   0.000000
     8  O    1.330943   2.296887   0.000000
     9  H    1.089185   2.045963   2.015700   0.000000
    10  H    1.977750   2.476283   1.018506   2.901889   0.000000
    11  C    6.649514   6.651601   5.712656   7.639040   4.743315
    12  O    6.645247   6.430678   5.899529   7.694369   4.887107
    13  O    5.672106   5.870530   4.613724   6.593310   3.713658
    14  H    7.621903   7.692486   6.611290   8.578253   5.679622
    15  H    4.709268   4.854411   3.728699   5.668791   2.776169
    16  C    7.259261   7.774925   6.123473   7.891201   5.612163
    17  O    7.177720   7.535414   6.186024   7.867564   5.618493
    18  O    6.807424   7.360710   5.575600   7.474887   5.012356
    19  H    7.982902   8.599603   6.824478   8.515781   6.422698
    20  H    6.253355   6.689690   5.059387   7.022558   4.364231
    21  C    6.322190   6.071327   5.858673   7.221152   5.112696
    22  O    5.385828   5.151271   4.859113   6.350926   4.026885
    23  O    7.110791   7.040291   6.507709   7.927262   5.831945
    24  H    6.823323   6.405335   6.542637   7.714494   5.826130
    25  H    6.955687   7.048489   6.192124   7.742274   5.533915
    26  C    4.953276   4.410438   5.258567   5.582783   4.979045
    27  O    5.985630   5.450505   6.127217   6.685089   5.708605
    28  O    3.769222   3.329833   3.960952   4.504402   3.646658
    29  H    5.185966   4.595838   5.712211   5.654269   5.591570
    30  H    4.055380   3.704766   3.959479   4.905077   3.438019
                   11         12         13         14         15
    11  C    0.000000
    12  O    1.228553   0.000000
    13  O    1.365336   2.296163   0.000000
    14  H    1.092442   2.056089   2.030363   0.000000
    15  H    2.006223   2.469796   1.023303   2.918278   0.000000
    16  C    4.332098   5.437549   3.477386   4.176484   4.024434
    17  O    4.316334   5.262845   3.598465   4.274672   4.020381
    18  O    3.576820   4.748232   2.625977   3.447944   3.269320
    19  H    5.325512   6.468399   4.472734   5.067619   5.029291
    20  H    2.637568   3.773665   1.612910   2.702658   2.302852
    21  C    4.209389   4.313048   4.002728   4.736778   3.830816
    22  O    3.365620   3.415921   3.053900   4.101142   2.701866
    23  O    4.630729   5.022256   4.336051   4.899540   4.402788
    24  H    5.038324   4.939081   4.979173   5.578388   4.745875
    25  H    4.247814   4.866502   3.784453   4.425602   3.978411
    26  C    6.885705   6.726062   6.339334   7.722334   5.632091
    27  O    6.744649   6.582711   6.360016   7.480698   5.800454
    28  O    5.981574   5.880136   5.307613   6.878434   4.513161
    29  H    7.922669   7.731758   7.340912   8.782825   6.585879
    30  H    5.096910   5.041644   4.468985   5.965089   3.742885
                   16         17         18         19         20
    16  C    0.000000
    17  O    1.240736   0.000000
    18  O    1.334774   2.302526   0.000000
    19  H    1.091395   2.043097   2.004958   0.000000
    20  H    2.007068   2.534187   1.014657   2.910424   0.000000
    21  C    4.571907   3.531313   4.954018   5.541167   4.389518
    22  O    4.429943   3.643257   4.484518   5.478966   3.748609
    23  O    3.856026   2.663248   4.556552   4.695945   4.243206
    24  H    5.615213   4.519435   6.041498   6.551586   5.469575
    25  H    2.852474   1.665606   3.606570   3.705416   3.403356
    26  C    7.070522   6.188638   7.377696   7.903472   6.840915
    27  O    6.913633   5.890666   7.348175   7.757944   6.825976
    28  O    6.327541   5.612300   6.449451   7.194929   5.864701
    29  H    8.012719   7.153287   8.332960   8.795908   7.825666
    30  H    5.576620   4.839241   5.681006   6.501735   5.054591
                   21         22         23         24         25
    21  C    0.000000
    22  O    1.239036   0.000000
    23  O    1.341926   2.299563   0.000000
    24  H    1.092598   2.055861   2.005053   0.000000
    25  H    1.988016   2.497256   1.003817   2.890977   0.000000
    26  C    3.586311   3.656364   4.422882   3.317384   4.964793
    27  O    2.959996   3.401614   3.733560   2.414525   4.461656
    28  O    3.386477   3.033281   4.295734   3.493415   4.611387
    29  H    4.659397   4.736765   5.435746   4.321853   5.976952
    30  H    2.545506   2.087582   3.515774   2.826641   3.799726
                   26         27         28         29         30
    26  C    0.000000
    27  O    1.220571   0.000000
    28  O    1.332481   2.219696   0.000000
    29  H    1.089365   1.997145   2.097909   0.000000
    30  H    1.892135   2.299708   0.950675   2.872682   0.000000
 Stoichiometry    C6H12O12
 Framework group  C1[X(C6H12O12)]
 Deg. of freedom    84
 Full point group                 C1      NOp   1
 Largest Abelian subgroup         C1      NOp   1
 Largest concise Abelian subgroup C1      NOp   1
                         Standard orientation:                         
 ---------------------------------------------------------------------
 Center     Atomic      Atomic             Coordinates (Angstroms)
 Number     Number       Type             X           Y           Z
 ---------------------------------------------------------------------
      1          6           0       -1.217414   -1.067779    1.402840
      2          8           0       -0.689370   -1.597607    0.377460
      3          8           0       -2.493788   -0.772802    1.506389
      4          1           0       -0.622443   -0.844938    2.282311
      5          1           0       -3.064787   -0.963269    0.675591
      6          6           0       -3.297643   -1.799285   -1.706055
      7          8           0       -3.816230   -1.311633   -0.678765
      8          8           0       -2.015702   -2.127580   -1.848387
      9          1           0       -3.880479   -2.002702   -2.603411
     10          1           0       -1.447690   -1.947143   -1.022457
     11          6           0        2.351266   -1.596412    1.796045
     12          8           0        1.606086   -1.537563    2.771025
     13          8           0        1.925627   -1.637401    0.499398
     14          1           0        3.441891   -1.629431    1.849676
     15          1           0        0.908003   -1.590435    0.402529
     16          6           0        3.739249   -0.040951   -2.001470
     17          8           0        3.303958    1.011346   -1.508909
     18          8           0        3.488984   -1.282618   -1.580458
     19          1           0        4.403438   -0.046809   -2.867473
     20          1           0        2.872370   -1.377136   -0.780219
     21          6           0        0.901023    2.221915    0.778141
     22          8           0        0.508299    1.047779    0.826961
     23          8           0        1.938705    2.676175    0.058676
     24          1           0        0.432938    3.039243    1.331896
     25          1           0        2.412274    1.982562   -0.491125
     26          6           0       -2.467923    2.867546   -0.268280
     27          8           0       -1.670308    3.604251    0.289276
     28          8           0       -2.181613    1.581789   -0.469187
     29          1           0       -3.423963    3.266837   -0.604835
     30          1           0       -1.320081    1.369930   -0.127629
 ---------------------------------------------------------------------
 Rotational constants (GHZ):      0.3512590      0.2390517      0.1982076
 Standard basis: 6-31G (6D, 7F)
 There are   186 symmetry adapted basis functions of A   symmetry.
 Integral buffers will be    131072 words long.
 Raffenetti 2 integral format.
 Two-electron integral symmetry is turned on.
   186 basis functions,   444 primitive gaussians,   186 cartesian basis functions
    72 alpha electrons       72 beta electrons
       nuclear repulsion energy      1431.7510042056 Hartrees.
 NAtoms=   30 NActive=   30 NUniq=   30 SFac= 7.50D-01 NAtFMM=   80 NAOKFM=F Big=F
 One-electron integrals computed using PRISM.
 NBasis=   186 RedAO= T  NBF=   186
 NBsUse=   186 1.00D-06 NBFU=   186
 Harris functional with IExCor=  402 diagonalized for initial guess.
 ExpMin= 1.61D-01 ExpMax= 5.48D+03 ExpMxC= 8.25D+02 IAcc=1 IRadAn=         1 AccDes= 0.00D+00
 HarFok:  IExCor=  402 AccDes= 0.00D+00 IRadAn=         1 IDoV= 1
 ScaDFX=  1.000000  1.000000  1.000000  1.000000
 FoFCou: FMM=F IPFlag=           0 FMFlag=      100000 FMFlg1=           0
         NFxFlg=           0 DoJE=T BraDBF=F KetDBF=T FulRan=T
         Omega=  0.000000  0.000000  1.000000  0.000000  0.000000 ICntrl=     500 IOpCl=  0
         NMat0=    1 NMatS0=    1 NMatT0=    0 NMatD0=    1 NMtDS0=    0 NMtDT0=    0
         I1Cent=           4 NGrid=           0.
 Petite list used in FoFCou.
 Initial guess orbital symmetries:
       Occupied  (A) (A) (A) (A) (A) (A) (A) (A) (A) (A) (A) (A)
                 (A) (A) (A) (A) (A) (A) (A) (A) (A) (A) (A) (A)
                 (A) (A) (A) (A) (A) (A) (A) (A) (A) (A) (A) (A)
                 (A) (A) (A) (A) (A) (A) (A) (A) (A) (A) (A) (A)
                 (A) (A) (A) (A) (A) (A) (A) (A) (A) (A) (A) (A)
                 (A) (A) (A) (A) (A) (A) (A) (A) (A) (A) (A) (A)
       Virtual   (A) (A) (A) (A) (A) (A) (A) (A) (A) (A) (A) (A)
                 (A) (A) (A) (A) (A) (A) (A) (A) (A) (A) (A) (A)
                 (A) (A) (A) (A) (A) (A) (A) (A) (A) (A) (A) (A)
                 (A) (A) (A) (A) (A) (A) (A) (A) (A) (A) (A) (A)
                 (A) (A) (A) (A) (A) (A) (A) (A) (A) (A) (A) (A)
                 (A) (A) (A) (A) (A) (A) (A) (A) (A) (A) (A) (A)
                 (A) (A) (A) (A) (A) (A) (A) (A) (A) (A) (A) (A)
                 (A) (A) (A) (A) (A) (A) (A) (A) (A) (A) (A) (A)
                 (A) (A) (A) (A) (A) (A) (A) (A) (A) (A) (A) (A)
                 (A) (A) (A) (A) (A) (A)
 The electronic state of the initial guess is 1-A.
 Requested convergence on RMS density matrix=1.00D-08 within 128 cycles.
 Requested convergence on MAX density matrix=1.00D-06.
 Requested convergence on             energy=1.00D-06.
 No special actions if energy rises.
 Keep R1 ints in memory in canonical form, NReq=154883723.
 Integral accuracy reduced to 1.0D-05 until final iterations.
 Initial convergence to 1.0D-05 achieved.  Increase integral accuracy.
 SCF Done:  E(RB3LYP) =  -1138.21979675     A.U. after   15 cycles
             Convg  =    0.6172D-08             -V/T =  2.0055

 **********************************************************************

            Population analysis using the SCF density.

 **********************************************************************

 Orbital symmetries:
       Occupied  (A) (A) (A) (A) (A) (A) (A) (A) (A) (A) (A) (A)
                 (A) (A) (A) (A) (A) (A) (A) (A) (A) (A) (A) (A)
                 (A) (A) (A) (A) (A) (A) (A) (A) (A) (A) (A) (A)
                 (A) (A) (A) (A) (A) (A) (A) (A) (A) (A) (A) (A)
                 (A) (A) (A) (A) (A) (A) (A) (A) (A) (A) (A) (A)
                 (A) (A) (A) (A) (A) (A) (A) (A) (A) (A) (A) (A)
       Virtual   (A) (A) (A) (A) (A) (A) (A) (A) (A) (A) (A) (A)
                 (A) (A) (A) (A) (A) (A) (A) (A) (A) (A) (A) (A)
                 (A) (A) (A) (A) (A) (A) (A) (A) (A) (A) (A) (A)
                 (A) (A) (A) (A) (A) (A) (A) (A) (A) (A) (A) (A)
                 (A) (A) (A) (A) (A) (A) (A) (A) (A) (A) (A) (A)
                 (A) (A) (A) (A) (A) (A) (A) (A) (A) (A) (A) (A)
                 (A) (A) (A) (A) (A) (A) (A) (A) (A) (A) (A) (A)
                 (A) (A) (A) (A) (A) (A) (A) (A) (A) (A) (A) (A)
                 (A) (A) (A) (A) (A) (A) (A) (A) (A) (A) (A) (A)
                 (A) (A) (A) (A) (A) (A)
 The electronic state is 1-A.
 Alpha  occ. eigenvalues --  -19.22207 -19.21738 -19.21406 -19.20671 -19.20560
 Alpha  occ. eigenvalues --  -19.20314 -19.19219 -19.18900 -19.17784 -19.17653
 Alpha  occ. eigenvalues --  -19.16507 -19.15701 -10.37271 -10.36411 -10.35545
 Alpha  occ. eigenvalues --  -10.35542 -10.34021 -10.33829  -1.15891  -1.14791
 Alpha  occ. eigenvalues --   -1.14170  -1.13603  -1.12908  -1.11989  -1.07180
 Alpha  occ. eigenvalues --   -1.05564  -1.05243  -1.04668  -1.04612  -1.03708
 Alpha  occ. eigenvalues --   -0.71212  -0.69128  -0.68648  -0.68526  -0.67880
 Alpha  occ. eigenvalues --   -0.66814  -0.59067  -0.56136  -0.55774  -0.55360
 Alpha  occ. eigenvalues --   -0.54665  -0.53521  -0.52848  -0.50872  -0.50420
 Alpha  occ. eigenvalues --   -0.50088  -0.49146  -0.48477  -0.47344  -0.46765
 Alpha  occ. eigenvalues --   -0.46548  -0.46255  -0.46089  -0.45226  -0.43554
 Alpha  occ. eigenvalues --   -0.43098  -0.39750  -0.39282  -0.38237  -0.36930
 Alpha  occ. eigenvalues --   -0.36177  -0.34572  -0.34422  -0.34244  -0.33947
 Alpha  occ. eigenvalues --   -0.33048  -0.32851  -0.32039  -0.31219  -0.30656
 Alpha  occ. eigenvalues --   -0.29888  -0.28978
 Alpha virt. eigenvalues --   -0.05273  -0.04141  -0.03516  -0.03279  -0.02315
 Alpha virt. eigenvalues --   -0.01653   0.07826   0.10117   0.10208   0.10353
 Alpha virt. eigenvalues --    0.12166   0.12839   0.13494   0.13775   0.15040
 Alpha virt. eigenvalues --    0.16720   0.16967   0.20504   0.23249   0.24148
 Alpha virt. eigenvalues --    0.24889   0.25497   0.25892   0.26108   0.27149
 Alpha virt. eigenvalues --    0.29109   0.30130   0.31009   0.32125   0.34967
 Alpha virt. eigenvalues --    0.47189   0.48955   0.49196   0.49733   0.50343
 Alpha virt. eigenvalues --    0.51543   0.52215   0.54019   0.54717   0.55463
 Alpha virt. eigenvalues --    0.56931   0.57306   0.58708   0.61182   0.63356
 Alpha virt. eigenvalues --    0.64907   0.66171   0.66763   0.69197   0.69868
 Alpha virt. eigenvalues --    0.70348   0.71584   0.73986   0.75155   0.77063
 Alpha virt. eigenvalues --    0.77681   0.77960   0.78853   0.80780   0.81792
 Alpha virt. eigenvalues --    0.83363   0.83761   0.85336   0.85486   0.86329
 Alpha virt. eigenvalues --    0.86791   0.88594   0.88670   0.89265   0.90734
 Alpha virt. eigenvalues --    0.92005   0.94499   0.95696   0.96909   0.97258
 Alpha virt. eigenvalues --    0.98682   0.99678   1.00785   1.02210   1.02935
 Alpha virt. eigenvalues --    1.04313   1.06123   1.07643   1.09263   1.11946
 Alpha virt. eigenvalues --    1.13532   1.14699   1.16366   1.19811   1.22626
 Alpha virt. eigenvalues --    1.23268   1.25252   1.26833   1.28788   1.29999
 Alpha virt. eigenvalues --    1.31564   1.34157   1.36442   1.39983   1.44184
 Alpha virt. eigenvalues --    1.44606   1.50942   1.62638   1.65823   1.67409
 Alpha virt. eigenvalues --    1.67640   1.68428   1.69547   1.76484   1.81264
 Alpha virt. eigenvalues --    1.84423   1.89501   1.95479   1.99206
          Condensed to atoms (all electrons):
              1          2          3          4          5          6
     1  C    4.653023   0.282133   0.260874   0.365197  -0.016621   0.001494
     2  O    0.282133   8.352721  -0.083159  -0.060062   0.003299   0.001611
     3  O    0.260874  -0.083159   8.252260  -0.058538   0.187167   0.001824
     4  H    0.365197  -0.060062  -0.058538   0.492865   0.002484   0.000015
     5  H   -0.016621   0.003299   0.187167   0.002484   0.294481  -0.008063
     6  C    0.001494   0.001611   0.001824   0.000015  -0.008063   4.639944
     7  O    0.002249  -0.001097  -0.039829  -0.000053   0.091909   0.374554
     8  O    0.001176  -0.034183   0.000306  -0.000061  -0.000768   0.226719
     9  H    0.000015  -0.000075  -0.000086   0.000000   0.001056   0.379245
    10  H   -0.005696   0.076677  -0.000800   0.000757   0.002183  -0.017104
    11  C    0.001363   0.000943   0.000010  -0.000645   0.000000   0.000000
    12  O   -0.004304  -0.000683   0.000055   0.020779   0.000000   0.000000
    13  O    0.000775  -0.036038  -0.000019   0.000278   0.000003   0.000001
    14  H   -0.000007  -0.000079   0.000000   0.000242   0.000000   0.000000
    15  H   -0.003768   0.074129   0.000470  -0.000268  -0.000001  -0.000003
    16  C    0.000000   0.000000   0.000000   0.000000   0.000000   0.000000
    17  O    0.000000   0.000000   0.000000   0.000000   0.000000   0.000000
    18  O    0.000000  -0.000005   0.000000   0.000000   0.000000   0.000000
    19  H    0.000000   0.000000   0.000000   0.000000   0.000000   0.000000
    20  H    0.000011   0.000086   0.000000  -0.000007   0.000000   0.000000
    21  C    0.000091   0.000104  -0.000065   0.000194  -0.000002   0.000000
    22  O    0.006919  -0.002528  -0.000652   0.001888  -0.000055   0.000000
    23  O    0.000016  -0.000001   0.000000   0.000003   0.000000   0.000000
    24  H   -0.000058  -0.000002   0.000006  -0.000012   0.000000   0.000000
    25  H   -0.000002  -0.000002   0.000000  -0.000001   0.000000   0.000000
    26  C    0.000031  -0.000012   0.000223   0.000003   0.000080   0.000057
    27  O   -0.000010   0.000000  -0.000003   0.000000   0.000002   0.000000
    28  O    0.001915  -0.000226  -0.000401   0.000017   0.002166   0.001247
    29  H   -0.000001   0.000000   0.000000   0.000000  -0.000008   0.000001
    30  H    0.002150   0.000893   0.000538  -0.000141  -0.000363   0.000003
              7          8          9         10         11         12
     1  C    0.002249   0.001176   0.000015  -0.005696   0.001363  -0.004304
     2  O   -0.001097  -0.034183  -0.000075   0.076677   0.000943  -0.000683
     3  O   -0.039829   0.000306  -0.000086  -0.000800   0.000010   0.000055
     4  H   -0.000053  -0.000061   0.000000   0.000757  -0.000645   0.020779
     5  H    0.091909  -0.000768   0.001056   0.002183   0.000000   0.000000
     6  C    0.374554   0.226719   0.379245  -0.017104   0.000000   0.000000
     7  O    8.181946  -0.085744  -0.062346   0.003532   0.000000   0.000000
     8  O   -0.085744   8.305181  -0.079993   0.200026   0.000000   0.000000
     9  H   -0.062346  -0.079993   0.574321   0.003786   0.000000   0.000000
    10  H    0.003532   0.200026   0.003786   0.303743  -0.000013  -0.000001
    11  C    0.000000   0.000000   0.000000  -0.000013   4.639904   0.478476
    12  O    0.000000   0.000000   0.000000  -0.000001   0.478476   8.037368
    13  O    0.000000  -0.000004   0.000000   0.000018   0.116946  -0.085191
    14  H    0.000000   0.000000   0.000000   0.000000   0.365911  -0.056083
    15  H    0.000005  -0.000010   0.000000   0.000761  -0.010617   0.003091
    16  C    0.000000   0.000000   0.000000   0.000000   0.000270   0.000000
    17  O    0.000000   0.000000   0.000000   0.000000   0.000067   0.000000
    18  O    0.000000   0.000000   0.000000   0.000001  -0.000302  -0.000007
    19  H    0.000000   0.000000   0.000000   0.000000   0.000000   0.000000
    20  H    0.000000   0.000001   0.000000  -0.000004   0.001006   0.000238
    21  C    0.000000   0.000000   0.000000   0.000002   0.000322   0.000005
    22  O    0.000000   0.000000   0.000000  -0.000006   0.003424  -0.000491
    23  O    0.000000   0.000000   0.000000   0.000000  -0.000028   0.000000
    24  H    0.000000   0.000000   0.000000   0.000000   0.000013  -0.000001
    25  H    0.000000   0.000000   0.000000   0.000000   0.000058  -0.000003
    26  C    0.000041  -0.000003   0.000001   0.000006   0.000000   0.000000
    27  O    0.000000   0.000000   0.000000   0.000000   0.000000   0.000000
    28  O   -0.000049  -0.000078   0.000011   0.000126   0.000000   0.000000
    29  H    0.000010   0.000000   0.000000   0.000000   0.000000   0.000000
    30  H    0.000035   0.000045   0.000000   0.000057  -0.000003   0.000002
             13         14         15         16         17         18
     1  C    0.000775  -0.000007  -0.003768   0.000000   0.000000   0.000000
     2  O   -0.036038  -0.000079   0.074129   0.000000   0.000000  -0.000005
     3  O   -0.000019   0.000000   0.000470   0.000000   0.000000   0.000000
     4  H    0.000278   0.000242  -0.000268   0.000000   0.000000   0.000000
     5  H    0.000003   0.000000  -0.000001   0.000000   0.000000   0.000000
     6  C    0.000001   0.000000  -0.000003   0.000000   0.000000   0.000000
     7  O    0.000000   0.000000   0.000005   0.000000   0.000000   0.000000
     8  O   -0.000004   0.000000  -0.000010   0.000000   0.000000   0.000000
     9  H    0.000000   0.000000   0.000000   0.000000   0.000000   0.000000
    10  H    0.000018   0.000000   0.000761   0.000000   0.000000   0.000001
    11  C    0.116946   0.365911  -0.010617   0.000270   0.000067  -0.000302
    12  O   -0.085191  -0.056083   0.003091   0.000000   0.000000  -0.000007
    13  O    8.516285  -0.089626   0.188657   0.001846  -0.000347  -0.032566
    14  H   -0.089626   0.610586   0.003358   0.000100  -0.000019   0.000557
    15  H    0.188657   0.003358   0.267133   0.000095   0.000030   0.000514
    16  C    0.001846   0.000100   0.000095   4.627938   0.411452   0.213099
    17  O   -0.000347  -0.000019   0.000030   0.411452   8.150295  -0.087977
    18  O   -0.032566   0.000557   0.000514   0.213099  -0.087977   8.331019
    19  H   -0.000058   0.000002   0.000003   0.375907  -0.066536  -0.086799
    20  H    0.057817  -0.000268  -0.000146  -0.011571   0.004716   0.206344
    21  C    0.000260  -0.000006  -0.000146   0.000186   0.000515  -0.000014
    22  O   -0.000877  -0.000018   0.004019   0.000080  -0.000335  -0.000008
    23  O   -0.000004   0.000000  -0.000027   0.000577  -0.024829   0.000009
    24  H   -0.000002   0.000000   0.000017   0.000004  -0.000034   0.000000
    25  H    0.000199   0.000001   0.000037  -0.004549   0.070150  -0.000216
    26  C    0.000000   0.000000  -0.000001   0.000000   0.000000   0.000000
    27  O    0.000000   0.000000   0.000000   0.000000   0.000000   0.000000
    28  O    0.000000   0.000000  -0.000007   0.000000   0.000000   0.000000
    29  H    0.000000   0.000000   0.000000   0.000000   0.000000   0.000000
    30  H   -0.000004   0.000000   0.000057   0.000000   0.000000   0.000000
             19         20         21         22         23         24
     1  C    0.000000   0.000011   0.000091   0.006919   0.000016  -0.000058
     2  O    0.000000   0.000086   0.000104  -0.002528  -0.000001  -0.000002
     3  O    0.000000   0.000000  -0.000065  -0.000652   0.000000   0.000006
     4  H    0.000000  -0.000007   0.000194   0.001888   0.000003  -0.000012
     5  H    0.000000   0.000000  -0.000002  -0.000055   0.000000   0.000000
     6  C    0.000000   0.000000   0.000000   0.000000   0.000000   0.000000
     7  O    0.000000   0.000000   0.000000   0.000000   0.000000   0.000000
     8  O    0.000000   0.000001   0.000000   0.000000   0.000000   0.000000
     9  H    0.000000   0.000000   0.000000   0.000000   0.000000   0.000000
    10  H    0.000000  -0.000004   0.000002  -0.000006   0.000000   0.000000
    11  C    0.000000   0.001006   0.000322   0.003424  -0.000028   0.000013
    12  O    0.000000   0.000238   0.000005  -0.000491   0.000000  -0.000001
    13  O   -0.000058   0.057817   0.000260  -0.000877  -0.000004  -0.000002
    14  H    0.000002  -0.000268  -0.000006  -0.000018   0.000000   0.000000
    15  H    0.000003  -0.000146  -0.000146   0.004019  -0.000027   0.000017
    16  C    0.375907  -0.011571   0.000186   0.000080   0.000577   0.000004
    17  O   -0.066536   0.004716   0.000515  -0.000335  -0.024829  -0.000034
    18  O   -0.086799   0.206344  -0.000014  -0.000008   0.000009   0.000000
    19  H    0.602654   0.004658   0.000003   0.000000  -0.000044   0.000000
    20  H    0.004658   0.290144   0.000072   0.000140  -0.000034   0.000001
    21  C    0.000003   0.000072   4.694991   0.376258   0.204204   0.368421
    22  O    0.000000   0.000140   0.376258   8.219831  -0.088206  -0.064783
    23  O   -0.000044  -0.000034   0.204204  -0.088206   8.325284  -0.082761
    24  H    0.000000   0.000001   0.368421  -0.064783  -0.082761   0.568410
    25  H    0.000622   0.000308  -0.011695   0.005167   0.197085   0.004818
    26  C    0.000000   0.000000   0.002063  -0.001010   0.000023  -0.001012
    27  O    0.000000   0.000000   0.000588  -0.001159  -0.000101   0.009094
    28  O    0.000000   0.000000  -0.001067  -0.006931   0.000010   0.000055
    29  H    0.000000   0.000000   0.000048  -0.000024   0.000000   0.000044
    30  H    0.000000   0.000000   0.003507   0.038964  -0.000504   0.000035
             25         26         27         28         29         30
     1  C   -0.000002   0.000031  -0.000010   0.001915  -0.000001   0.002150
     2  O   -0.000002  -0.000012   0.000000  -0.000226   0.000000   0.000893
     3  O    0.000000   0.000223  -0.000003  -0.000401   0.000000   0.000538
     4  H   -0.000001   0.000003   0.000000   0.000017   0.000000  -0.000141
     5  H    0.000000   0.000080   0.000002   0.002166  -0.000008  -0.000363
     6  C    0.000000   0.000057   0.000000   0.001247   0.000001   0.000003
     7  O    0.000000   0.000041   0.000000  -0.000049   0.000010   0.000035
     8  O    0.000000  -0.000003   0.000000  -0.000078   0.000000   0.000045
     9  H    0.000000   0.000001   0.000000   0.000011   0.000000   0.000000
    10  H    0.000000   0.000006   0.000000   0.000126   0.000000   0.000057
    11  C    0.000058   0.000000   0.000000   0.000000   0.000000  -0.000003
    12  O   -0.000003   0.000000   0.000000   0.000000   0.000000   0.000002
    13  O    0.000199   0.000000   0.000000   0.000000   0.000000  -0.000004
    14  H    0.000001   0.000000   0.000000   0.000000   0.000000   0.000000
    15  H    0.000037  -0.000001   0.000000  -0.000007   0.000000   0.000057
    16  C   -0.004549   0.000000   0.000000   0.000000   0.000000   0.000000
    17  O    0.070150   0.000000   0.000000   0.000000   0.000000   0.000000
    18  O   -0.000216   0.000000   0.000000   0.000000   0.000000   0.000000
    19  H    0.000622   0.000000   0.000000   0.000000   0.000000   0.000000
    20  H    0.000308   0.000000   0.000000   0.000000   0.000000   0.000000
    21  C   -0.011695   0.002063   0.000588  -0.001067   0.000048   0.003507
    22  O    0.005167  -0.001010  -0.001159  -0.006931  -0.000024   0.038964
    23  O    0.197085   0.000023  -0.000101   0.000010   0.000000  -0.000504
    24  H    0.004818  -0.001012   0.009094   0.000055   0.000044   0.000035
    25  H    0.313335  -0.000007  -0.000021  -0.000001   0.000000  -0.000001
    26  C   -0.000007   4.670610   0.478913   0.163449   0.355838  -0.017147
    27  O   -0.000021   0.478913   8.091780  -0.112388  -0.067749   0.005027
    28  O   -0.000001   0.163449  -0.112388   8.354939  -0.079039   0.217367
    29  H    0.000000   0.355838  -0.067749  -0.079039   0.613509   0.005213
    30  H   -0.000001  -0.017147   0.005027   0.217367   0.005213   0.340873
 Mulliken atomic charges:
              1
     1  C    0.451036
     2  O   -0.574444
     3  O   -0.520184
     4  H    0.235063
     5  H    0.441050
     6  C    0.398455
     7  O   -0.465164
     8  O   -0.532608
     9  H    0.184065
    10  H    0.431950
    11  C    0.402895
    12  O   -0.393251
    13  O   -0.638346
    14  H    0.165348
    15  H    0.472616
    16  C    0.384567
    17  O   -0.457147
    18  O   -0.543648
    19  H    0.169588
    20  H    0.446490
    21  C    0.361162
    22  O   -0.489607
    23  O   -0.530671
    24  H    0.197749
    25  H    0.424716
    26  C    0.347854
    27  O   -0.403974
    28  O   -0.541115
    29  H    0.172159
    30  H    0.403398
 Sum of Mulliken atomic charges =   0.00000
 Mulliken charges with hydrogens summed into heavy atoms:
              1
     1  C    0.686099
     2  O   -0.574444
     3  O   -0.079134
     6  C    0.582519
     7  O   -0.465164
     8  O   -0.100658
    11  C    0.568243
    12  O   -0.393251
    13  O   -0.165730
    16  C    0.554155
    17  O   -0.457147
    18  O   -0.097158
    21  C    0.558911
    22  O   -0.489607
    23  O   -0.105955
    26  C    0.520012
    27  O   -0.403974
    28  O   -0.137717
 Sum of Mulliken charges with hydrogens summed into heavy atoms =   0.00000
 Electronic spatial extent (au):  <R**2>=           5959.9837
 Charge=              0.0000 electrons
 Dipole moment (field-independent basis, Debye):
    X=             -0.0177    Y=             -2.2841    Z=             -1.9575  Tot=              3.0082
 Quadrupole moment (field-independent basis, Debye-Ang):
   XX=            -93.0360   YY=           -114.2376   ZZ=           -104.7666
   XY=             -2.9953   XZ=              5.9797   YZ=             -0.8636
 Traceless Quadrupole moment (field-independent basis, Debye-Ang):
   XX=             10.9774   YY=            -10.2242   ZZ=             -0.7532
   XY=             -2.9953   XZ=              5.9797   YZ=             -0.8636
 Octapole moment (field-independent basis, Debye-Ang**2):
  XXX=             36.9495  YYY=            -52.8178  ZZZ=            -41.8730  XYY=            -38.0331
  XXY=             -6.8682  XXZ=            -33.9636  XZZ=             -2.8216  YZZ=             13.8520
  YYZ=              2.4658  XYZ=             -5.6205
 Hexadecapole moment (field-independent basis, Debye-Ang**3):
 XXXX=          -3566.2190 YYYY=          -2436.8244 ZZZZ=          -1277.3745 XXXY=            -77.7900
 XXXZ=             80.3061 YYYX=             -9.9375 YYYZ=            -44.6030 ZZZX=            -48.2648
 ZZZY=             45.6076 XXYY=           -954.7091 XXZZ=           -694.1892 YYZZ=           -584.6287
 XXYZ=             -4.3831 YYXZ=             84.5635 ZZXY=             47.4301
 N-N= 1.431751004206D+03 E-N=-5.540268401018D+03  KE= 1.132002892797D+03
 Calling FoFJK, ICntrl=      2127 FMM=F ISym2X=0 I1Cent= 0 IOpClX= 0 NMat=1 NMatS=1 NMatT=0.
 ***** Axes restored to original set *****
 -------------------------------------------------------------------
 Center     Atomic                   Forces (Hartrees/Bohr)
 Number     Number              X              Y              Z
 -------------------------------------------------------------------
      1        6          -0.000385012    0.003841465    0.000649270
      2        8           0.000204166   -0.001482430    0.000115524
      3        8          -0.001699926   -0.000570108    0.001508343
      4        1          -0.000228917   -0.000023663    0.000309380
      5        1           0.001795431   -0.000447854   -0.002032842
      6        6           0.002393862    0.000570495    0.001378627
      7        8          -0.001912746    0.000909054   -0.000478710
      8        8          -0.001276635   -0.000740702    0.000920232
      9        1          -0.000002429   -0.000168385    0.000017752
     10        1           0.000526113    0.000572468   -0.001742500
     11        6          -0.000446941    0.000080558    0.000612296
     12        8           0.000190889   -0.000081211   -0.000241029
     13        8           0.000706950   -0.000063822   -0.000381889
     14        1           0.000022653    0.000050389   -0.000029049
     15        1          -0.000872052    0.000083003    0.000069771
     16        6          -0.000520190   -0.000160500   -0.000333131
     17        8           0.000626921    0.000399873    0.000299845
     18        8           0.000242082    0.000003839    0.000087949
     19        1           0.000051814    0.000045210    0.000086169
     20        1          -0.000283414   -0.000077201   -0.000114849
     21        6           0.010622152   -0.017416913    0.013471827
     22        8          -0.003521298    0.008874079   -0.011101401
     23        8          -0.002314029    0.005915612    0.000248903
     24        1          -0.002713647   -0.000202296   -0.002505870
     25        1          -0.001001679   -0.001064653   -0.000677226
     26        6           0.015337208   -0.006237043    0.007989994
     27        8           0.009619466   -0.019352715    0.023542794
     28        8           0.014768436    0.030050486   -0.040628245
     29        1          -0.009673953    0.009549525   -0.011138742
     30        1          -0.030255276   -0.012856560    0.020096806
 -------------------------------------------------------------------
 Cartesian Forces:  Max     0.040628245 RMS     0.008722079

 GradGradGradGradGradGradGradGradGradGradGradGradGradGradGradGradGradGrad
 Berny optimization.
 Internal  Forces:  Max     0.035632995 RMS     0.007142930
 Search for a local minimum.
 Step number   1 out of a maximum of  132
 All quantities printed in internal units (Hartrees-Bohrs-Radians)
 Mixed Optimization -- RFO/linear search
 Second derivative matrix not updated -- first step.
     Eigenvalues ---    0.00230   0.00230   0.00230   0.00384   0.00605
     Eigenvalues ---    0.00707   0.00756   0.00834   0.00870   0.00978
     Eigenvalues ---    0.01037   0.01248   0.01417   0.01657   0.01769
     Eigenvalues ---    0.01820   0.02150   0.02151   0.02460   0.02555
     Eigenvalues ---    0.02636   0.02836   0.02991   0.03202   0.03235
     Eigenvalues ---    0.03237   0.03257   0.03349   0.03758   0.03799
     Eigenvalues ---    0.04879   0.04929   0.07937   0.08059   0.08799
     Eigenvalues ---    0.08849   0.09140   0.09892   0.11078   0.15631
     Eigenvalues ---    0.15770   0.15866   0.15924   0.15998   0.16000
     Eigenvalues ---    0.16000   0.16000   0.16000   0.16000   0.16000
     Eigenvalues ---    0.16000   0.17561   0.19259   0.19692   0.19922
     Eigenvalues ---    0.20374   0.22000   0.22000   0.22597   0.25000
     Eigenvalues ---    0.33939   0.34532   0.34652   0.34886   0.34907
     Eigenvalues ---    0.35403   0.41997   0.43811   0.44151   0.45200
     Eigenvalues ---    0.47024   0.51883   0.54137   0.56776   0.57325
     Eigenvalues ---    0.58155   0.58392   0.62628   0.74432   0.79845
     Eigenvalues ---    0.81872   0.86756   0.90636   0.916921000.00000
     Eigenvalues --- 1000.000001000.000001000.000001000.000001000.00000
     Eigenvalues --- 1000.000001000.000001000.000001000.000001000.00000
     Eigenvalues --- 1000.000001000.000001000.000001000.000001000.00000
     Eigenvalues --- 1000.000001000.000001000.000001000.000001000.00000
     Eigenvalues --- 1000.000001000.000001000.000001000.000001000.00000
     Eigenvalues --- 1000.000001000.000001000.000001000.000001000.00000
     Eigenvalues --- 1000.000001000.000001000.000001000.000001000.00000
     Eigenvalues --- 1000.000001000.00000
 RFO step:  Lambda=-3.64070336D-02 EMin= 2.30000000D-03
 Linear search not attempted -- first point.
 Maximum step size (   0.300) exceeded in Quadratic search.
    -- Step size scaled by   0.415
 Iteration  1 RMS(Cart)=  0.15305701 RMS(Int)=  0.02200252
 Iteration  2 RMS(Cart)=  0.16812456 RMS(Int)=  0.01666049
 Iteration  3 RMS(Cart)=  0.20414485 RMS(Int)=  0.01085887
 Iteration  4 RMS(Cart)=  0.27009041 RMS(Int)=  0.00563969
 Iteration  5 RMS(Cart)=  0.02101121 RMS(Int)=  0.00013201
 Iteration  6 RMS(Cart)=  0.00008788 RMS(Int)=  0.00013088
 Iteration  7 RMS(Cart)=  0.00000001 RMS(Int)=  0.00013088
 Variable       Old X    -DE/DX   Delta X   Delta X   Delta X     New X
                                 (Linear)    (Quad)   (Total)
    R1        2.39850   0.00153   0.00000   0.00076   0.00077   2.39927
    R2        2.48329  -0.00085   0.00000  -0.00050  -0.00050   2.48279
    R3        2.05026   0.00035   0.00000   0.00037   0.00037   2.05063
    R4        3.08031   0.00084   0.00000   0.00256   0.00257   3.08288
    R5        3.01900   0.00125   0.00000   0.00404   0.00404   3.02304
    R6        1.93874   0.00143   0.00000   0.00134   0.00134   1.94008
    R7        3.00003  -0.00084   0.00000  -0.00239  -0.00239   2.99764
    R8        2.36183  -0.00140   0.00000  -0.00064  -0.00065   2.36118
    R9        2.51512   0.00144   0.00000   0.00092   0.00092   2.51604
   R10        2.05826  -0.00005   0.00000  -0.00005  -0.00005   2.05821
   R11        1.92470  -0.00099   0.00000  -0.00093  -0.00092   1.92378
   R12        2.32163  -0.00012   0.00000  -0.00005  -0.00005   2.32157
   R13        2.58011   0.00044   0.00000   0.00032   0.00032   2.58043
   R14        2.06442  -0.00006   0.00000  -0.00006  -0.00006   2.06435
   R15        1.93376   0.00040   0.00000   0.00036   0.00036   1.93413
   R16        3.04796   0.00229   0.00000   0.00759   0.00761   3.05556
   R17        2.34465   0.00121   0.00000   0.00056   0.00056   2.34521
   R18        2.52236   0.00257   0.00000   0.00172   0.00172   2.52407
   R19        2.06244  -0.00010   0.00000  -0.00011  -0.00011   2.06233
   R20        3.14754  -0.00060   0.00000  -0.00215  -0.00215   3.14539
   R21        1.91742   0.00187   0.00000   0.00159   0.00157   1.91899
   R22        2.34144   0.01243   0.00000   0.00618   0.00623   2.34767
   R23        2.53587  -0.00661   0.00000  -0.00454  -0.00454   2.53134
   R24        2.06471   0.00085   0.00000  -0.00052  -0.00053   2.06418
   R25        4.81031   0.00482   0.00000   0.01826   0.01823   4.82854
   R26        3.94496  -0.00550   0.00000  -0.02637  -0.02641   3.91855
   R27        1.89694   0.00119   0.00000   0.00098   0.00098   1.89791
   R28        4.56279   0.00315   0.00000   0.02177   0.02180   4.58459
   R29        2.30654   0.02960   0.00000   0.01309   0.01313   2.31967
   R30        2.51803   0.02058   0.00000   0.01487   0.01489   2.53292
   R31        2.05860  -0.00032   0.00000  -0.00034  -0.00034   2.05826
   R32        1.79652   0.03563   0.00000   0.02414   0.02411   1.82063
    A1        2.16694   0.00059   0.00000   0.00102   0.00103   2.16797
    A2        2.10885  -0.00040   0.00000  -0.00074  -0.00074   2.10810
    A3        2.00718  -0.00020   0.00000  -0.00032  -0.00033   2.00685
    A4        2.20160  -0.00076   0.00000  -0.00124  -0.00127   2.20033
    A5        1.98387  -0.00030   0.00000  -0.00009  -0.00011   1.98376
    A6        2.07099   0.00126   0.00000   0.00308   0.00307   2.07406
    A7        2.02095   0.00044   0.00000   0.00151   0.00151   2.02245
    A8        2.19419   0.00052   0.00000   0.00093   0.00092   2.19511
    A9        2.12707  -0.00016   0.00000  -0.00026  -0.00025   2.12681
   A10        1.96193  -0.00036   0.00000  -0.00067  -0.00067   1.96126
   A11        2.20239  -0.00016   0.00000   0.00021   0.00019   2.20258
   A12        1.98968   0.00020   0.00000   0.00014   0.00014   1.98982
   A13        3.03092  -0.00039   0.00000  -0.00078  -0.00077   3.03015
   A14        2.17247  -0.00040   0.00000  -0.00064  -0.00064   2.17183
   A15        2.17491   0.00021   0.00000   0.00034   0.00034   2.17524
   A16        1.93579   0.00019   0.00000   0.00031   0.00031   1.93610
   A17        1.98072  -0.00519   0.00000  -0.01038  -0.01049   1.97023
   A18        2.17197  -0.00384   0.00000  -0.00775  -0.00795   2.16402
   A19        2.09580   0.00913   0.00000   0.01997   0.02002   2.11582
   A20        2.21176   0.01425   0.00000   0.02304   0.02300   2.23476
   A21        2.13301  -0.00716   0.00000  -0.01160  -0.01164   2.12138
   A22        1.93841  -0.00710   0.00000  -0.01147  -0.01151   1.92690
   A23        2.75169   0.01541   0.00000   0.03252   0.03252   2.78421
   A24        2.03685   0.02384   0.00000   0.05032   0.05032   2.08716
   A25        2.19815  -0.00396   0.00000  -0.00755  -0.00773   2.19042
   A26        2.15690   0.00337   0.00000   0.00193   0.00176   2.15865
   A27        1.92814   0.00059   0.00000   0.00564   0.00562   1.93376
   A28        2.21087  -0.00194   0.00000  -0.00934  -0.00939   2.20149
   A29        1.62773   0.00312   0.00000   0.00324   0.00322   1.63095
   A30        2.00927   0.00115   0.00000   0.00242   0.00242   2.01169
   A31        1.90644   0.00708   0.00000   0.00602   0.00598   1.91242
   A32        3.00115  -0.00600   0.00000  -0.00868  -0.00868   2.99246
   A33        2.10699   0.01038   0.00000   0.02208   0.02210   2.12909
   A34        2.08678   0.01289   0.00000   0.02714   0.02713   2.11391
   A35        2.08941  -0.02328   0.00000  -0.04922  -0.04923   2.04018
   A36        2.24624  -0.00911   0.00000  -0.01560  -0.01557   2.23067
   A37        1.93434  -0.00981   0.00000  -0.01423  -0.01429   1.92005
   A38        2.57548  -0.00179   0.00000   0.00092   0.00100   2.57648
   A39        3.01813   0.00107   0.00000   0.00048   0.00045   3.01858
   A40        3.04183  -0.00044   0.00000  -0.00171  -0.00171   3.04012
   A41        3.06345  -0.00850   0.00000  -0.08159  -0.08159   2.98186
   A42        3.21107   0.01783   0.00000   0.16604   0.16580   3.37688
   A43        3.14007  -0.00087   0.00000  -0.00834  -0.00832   3.13175
   A44        3.06198  -0.00434   0.00000  -0.03980  -0.03951   3.02247
   A45        3.11203  -0.00582   0.00000  -0.05389  -0.05389   3.05814
    D1        0.05647  -0.00016   0.00000  -0.00217  -0.00212   0.05435
    D2        2.94652   0.00091   0.00000   0.00634   0.00628   2.95280
    D3       -3.10922  -0.00052   0.00000  -0.00418  -0.00413  -3.11334
    D4       -0.21917   0.00056   0.00000   0.00434   0.00427  -0.21490
    D5       -0.04095  -0.00006   0.00000  -0.00023  -0.00025  -0.04119
    D6        3.12348   0.00028   0.00000   0.00168   0.00166   3.12514
    D7       -0.03791   0.00029   0.00000   0.00244   0.00239  -0.03553
    D8       -2.91670  -0.00062   0.00000  -0.00601  -0.00595  -2.92265
    D9        0.42425  -0.00312   0.00000  -0.02840  -0.02827   0.39598
   D10       -2.47533  -0.00418   0.00000  -0.04581  -0.04616  -2.52150
   D11       -2.91991  -0.00017   0.00000  -0.00069  -0.00034  -2.92025
   D12        0.46369  -0.00123   0.00000  -0.01810  -0.01823   0.44545
   D13        0.00434  -0.00060   0.00000  -0.00453  -0.00453  -0.00019
   D14        0.01054   0.00075   0.00000   0.00528   0.00528   0.01582
   D15       -3.13168   0.00039   0.00000   0.00284   0.00285  -3.12882
   D16       -0.00058  -0.00016   0.00000  -0.00028  -0.00026  -0.00085
   D17        3.14158   0.00017   0.00000   0.00196   0.00197  -3.13963
   D18        0.00169  -0.00034   0.00000  -0.00298  -0.00297  -0.00128
   D19        0.02564  -0.00107   0.00000  -0.00616  -0.00567   0.01997
   D20        2.88599   0.00082   0.00000   0.00434   0.00384   2.88983
   D21       -3.12230  -0.00096   0.00000  -0.00540  -0.00490  -3.12719
   D22       -0.26194   0.00092   0.00000   0.00510   0.00461  -0.25734
   D23       -1.48642  -0.00239   0.00000  -0.02366  -0.02413  -1.51055
   D24        1.39006   0.00614   0.00000   0.06376   0.06422   1.45429
   D25       -0.07622  -0.00772   0.00000  -0.04368  -0.04367  -0.11989
   D26        3.06863  -0.00494   0.00000  -0.02691  -0.02692   3.04170
   D27        0.01056  -0.00297   0.00000  -0.02069  -0.02068  -0.01012
   D28       -3.13399  -0.00549   0.00000  -0.03590  -0.03591   3.11328
   D29        3.09216  -0.01104   0.00000  -0.11821  -0.11821   2.97395
   D30        0.01749  -0.00450   0.00000  -0.02402  -0.02387  -0.00638
   D31       -3.12507  -0.00035   0.00000   0.00503   0.00502  -3.12005
   D32       -1.19268   0.00332   0.00000   0.00855   0.00841  -1.18426
   D33       -1.28797   0.00002   0.00000   0.02175   0.02179  -1.26618
   D34        1.85456  -0.00400   0.00000  -0.00647  -0.00646   1.84810
   D35       -0.43685  -0.00374   0.00000   0.00014   0.00021  -0.43664
   D36       -1.40411  -0.00362   0.00000  -0.01329  -0.01323  -1.41734
   D37        0.66650  -0.00100   0.00000  -0.00733  -0.00738   0.65913
   D38        2.92672  -0.01179   0.00000  -0.10584  -0.10584   2.82088
   D39        0.59799  -0.00192   0.00000  -0.00402  -0.00402   0.59397
   D40       -0.10397   0.00063   0.00000  -0.00073  -0.00076  -0.10473
   D41        3.03762   0.00108   0.00000  -0.00001  -0.00002   3.03760
   D42       -0.00001   0.00171   0.00000   0.00196   0.00194   0.00193
   D43        3.14159   0.00126   0.00000   0.00124   0.00123  -3.14037
   D44       -0.21974  -0.00137   0.00000   0.00303   0.00309  -0.21665
   D45        0.74343  -0.00045   0.00000  -0.00754  -0.00757   0.73586
         Item               Value     Threshold  Converged?
 Maximum Force            0.035633     0.000450     NO 
 RMS     Force            0.007143     0.000300     NO 
 Maximum Displacement     2.894006     0.001800     NO 
 RMS     Displacement     0.806975     0.001200     NO 
 Predicted change in Energy=-1.360256D-02
 GradGradGradGradGradGradGradGradGradGradGradGradGradGradGradGradGradGrad

                          Input orientation:                          
 ---------------------------------------------------------------------
 Center     Atomic      Atomic             Coordinates (Angstroms)
 Number     Number       Type             X           Y           Z
 ---------------------------------------------------------------------
      1          6           0       -0.297861    2.625660    0.600101
      2          8           0       -0.660405    1.906602   -0.381481
      3          8           0        0.502343    3.662907    0.500294
      4          1           0       -0.663931    2.423884    1.601512
      5          1           0        0.868844    3.857374   -0.438778
      6          6           0        1.022256    3.311808   -2.908076
      7          8           0        1.343017    4.036281   -1.941922
      8          8           0        0.205934    2.261285   -2.855830
      9          1           0        1.400436    3.493350   -3.913207
     10          1           0       -0.163942    2.069946   -1.926884
     11          6           0       -2.499087    0.096342    1.660743
     12          8           0       -2.302704    1.148274    2.264188
     13          8           0       -1.992517   -0.191612    0.425803
     14          1           0       -3.105765   -0.730866    2.036274
     15          1           0       -1.407023    0.559430    0.050733
     16          6           0       -1.343146   -3.583331   -0.567483
     17          8           0       -0.297209   -3.647014    0.097436
     18          8           0       -2.169816   -2.543094   -0.703753
     19          1           0       -1.716559   -4.442040   -1.128019
     20          1           0       -1.967459   -1.674824   -0.217572
     21          6           0        2.297091   -1.771299    1.590662
     22          8           0        1.870512   -0.834403    0.895215
     23          8           0        1.781380   -3.006879    1.632064
     24          1           0        3.174532   -1.695431    2.236803
     25          1           0        0.980333   -3.156858    1.045110
     26          6           0        5.325222   -1.122666   -0.231032
     27          8           0        5.182457   -1.632012    0.876661
     28          8           0        4.293998   -0.603978   -0.912288
     29          1           0        6.304133   -1.073486   -0.706040
     30          1           0        3.481497   -0.698926   -0.403333
 ---------------------------------------------------------------------
                    Distance matrix (angstroms):
                    1          2          3          4          5
     1  C    0.000000
     2  O    1.269640   0.000000
     3  O    1.313837   2.283444   0.000000
     4  H    1.085148   2.049355   2.026833   0.000000
     5  H    1.989369   2.479394   1.026644   2.926956   0.000000
     6  C    3.810618   3.345090   3.465627   4.895714   2.533497
     7  O    3.338295   3.314243   2.609705   4.379907   1.586281
     8  O    3.511415   2.645514   3.649106   4.544338   2.971378
     9  H    4.899698   4.386105   4.507140   5.984772   3.533661
    10  H    2.590831   1.631387   2.978700   3.581178   2.544799
    11  C    3.516790   3.290664   4.803707   2.964584   5.467751
    12  O    2.995205   3.204961   4.159686   2.179885   4.970308
    13  O    3.292303   2.613184   4.592079   3.160420   5.032809
    14  H    4.605778   4.333770   5.889220   4.012982   6.555558
    15  H    2.408600   1.599726   3.671424   2.536394   4.036785
    16  C    6.403706   5.535350   7.553406   6.422812   7.763604
    17  O    6.292783   5.586047   7.364545   6.265185   7.613346
    18  O    5.649803   4.709774   6.863279   5.679156   7.090109
    19  H    7.412927   6.479046   8.559502   7.463195   8.720070
    20  H    4.685116   3.816002   5.925084   4.669868   6.220833
    21  C    5.200792   5.114987   5.825858   5.134913   6.151461
    22  O    4.094017   3.943172   4.717377   4.187923   4.979523
    23  O    6.092101   5.844568   6.884975   5.955978   7.227660
    24  H    5.779977   5.876802   6.234408   5.666229   6.580925
    25  H    5.938798   5.510518   6.858169   5.844473   7.170341
    26  C    6.808802   6.710203   6.833499   7.197651   6.686049
    27  O    6.945368   6.945772   7.076813   7.152339   7.104294
    28  O    5.814039   5.579505   5.880336   6.329945   5.644427
    29  H    7.679584   7.582286   7.586135   8.130825   7.343513
    30  H    5.132572   4.893323   5.358870   5.563804   5.252340
                    6          7          8          9         10
     6  C    0.000000
     7  O    1.249481   0.000000
     8  O    1.331431   2.297564   0.000000
     9  H    1.089159   2.045492   2.015655   0.000000
    10  H    1.977884   2.477424   1.018018   2.901524   0.000000
    11  C    6.604027   6.577543   5.692411   7.603608   4.713711
    12  O    6.518324   6.270824   5.809186   7.574486   4.794670
    13  O    5.698908   5.882770   4.649624   6.627072   3.740784
    14  H    7.604628   7.638285   6.622160   8.575907   5.674988
    15  H    4.715033   4.860236   3.734442   5.674728   2.781704
    16  C    7.656137   8.195306   6.464961   8.294608   5.932793
    17  O    7.694107   8.116794   6.624420   8.363735   6.066239
    18  O    7.023406   7.560505   5.775611   7.712714   5.176844
    19  H    8.413790   9.050158   7.184419   8.969021   6.742014
    20  H    6.406536   6.822709   5.213156   7.190999   4.494188
    21  C    6.906651   6.864211   6.356569   7.668970   5.760640
    22  O    5.689958   5.661375   5.140472   6.486243   4.531941
    23  O    7.817605   7.910224   7.097660   8.552668   6.498041
    24  H    7.494966   7.325894   7.099514   8.239751   6.531444
    25  H    7.581100   7.797124   6.721109   8.305821   6.120587
    26  C    6.733992   6.737940   6.674414   7.090132   6.572641
    27  O    7.488181   7.403733   7.338599   7.969684   7.081549
    28  O    5.479128   5.594680   5.357179   5.845196   5.296462
    29  H    7.209577   7.228403   7.275324   7.428874   7.294356
    30  H    5.329877   5.418721   5.050437   5.850232   4.824633
                   11         12         13         14         15
    11  C    0.000000
    12  O    1.228524   0.000000
    13  O    1.365506   2.295902   0.000000
    14  H    1.092408   2.056214   2.030698   0.000000
    15  H    1.999796   2.459342   1.023496   2.914268   0.000000
    16  C    4.454345   5.597070   3.593336   4.245343   4.189121
    17  O    4.615724   5.631306   3.862861   4.488987   4.350636
    18  O    3.558916   4.738410   2.614728   3.415834   3.282797
    19  H    5.383907   6.565229   4.533945   5.071041   5.147812
    20  H    2.635854   3.773778   1.616935   2.695667   2.319044
    21  C    5.147457   5.489595   4.717313   5.520138   4.639411
    22  O    4.532739   4.818800   3.944176   5.106474   3.660350
    23  O    5.287079   5.860428   4.860359   5.406275   5.038361
    24  H    5.977646   6.171509   5.677991   6.357101   5.554633
    25  H    4.802986   5.549652   4.244297   4.854281   4.527587
    26  C    8.141536   8.340776   7.405916   8.739321   6.944924
    27  O    7.912528   8.104495   7.332003   8.417327   6.993270
    28  O    7.297735   7.528403   6.440559   7.966594   5.897675
    29  H    9.190585   9.372093   8.419809   9.807338   7.918400
    30  H    6.376539   6.632103   5.559646   7.024580   5.068261
                   16         17         18         19         20
    16  C    0.000000
    17  O    1.241031   0.000000
    18  O    1.335682   2.316722   0.000000
    19  H    1.091337   2.036752   1.997859   0.000000
    20  H    2.038285   2.603555   1.015486   2.923926   0.000000
    21  C    4.603518   3.532481   5.080676   5.534750   4.633077
    22  O    4.474784   3.639540   4.669109   5.474997   4.083458
    23  O    3.864320   2.661839   4.613360   4.681166   4.387405
    24  H    5.642481   4.520901   6.158527   6.541303   5.697759
    25  H    2.860226   1.664468   3.654951   3.694240   3.532742
    26  C    7.115842   6.171868   7.643080   7.836421   7.313567
    27  O    6.962520   5.890175   7.575203   7.714364   7.233290
    28  O    6.385360   5.599892   6.751633   7.134707   6.390241
    29  H    8.049807   7.130662   8.600440   8.709576   8.307795
    30  H    5.623515   4.818777   5.952189   6.446383   5.538773
                   21         22         23         24         25
    21  C    0.000000
    22  O    1.242332   0.000000
    23  O    1.339526   2.295766   0.000000
    24  H    1.092317   2.059537   2.006608   0.000000
    25  H    1.987775   2.491723   1.004333   2.893166   0.000000
    26  C    3.592892   3.645071   4.424952   3.323212   4.964326
    27  O    2.975657   3.406684   3.745426   2.426060   4.473408
    28  O    3.408084   3.032069   4.308237   3.515856   4.618330
    29  H    4.670993   4.719976   5.446103   4.340685   5.979115
    30  H    2.555155   2.073608   3.515663   2.838585   3.794106
                   26         27         28         29         30
    26  C    0.000000
    27  O    1.227517   0.000000
    28  O    1.340362   2.246453   0.000000
    29  H    1.089183   2.018676   2.074517   0.000000
    30  H    1.899622   2.324284   0.963435   2.863425   0.000000
 Stoichiometry    C6H12O12
 Framework group  C1[X(C6H12O12)]
 Deg. of freedom    84
 Full point group                 C1      NOp   1
 Largest Abelian subgroup         C1      NOp   1
 Largest concise Abelian subgroup C1      NOp   1
                         Standard orientation:                         
 ---------------------------------------------------------------------
 Center     Atomic      Atomic             Coordinates (Angstroms)
 Number     Number       Type             X           Y           Z
 ---------------------------------------------------------------------
      1          6           0        2.562175   -0.029296   -1.269147
      2          8           0        2.314144   -0.396361   -0.079302
      3          8           0        3.153562    1.100410   -1.585678
      4          1           0        2.308864   -0.665570   -2.110892
      5          1           0        3.385846    1.719891   -0.800640
      6          6           0        3.415451    2.225811    1.681653
      7          8           0        3.689532    2.560957    0.509578
      8          8           0        2.830307    1.087686    2.049059
      9          1           0        3.646774    2.866253    2.531706
     10          1           0        2.604540    0.468692    1.273021
     11          6           0        1.036768   -3.197910   -1.240382
     12          8           0        1.734319   -2.767900   -2.155689
     13          8           0        0.855906   -2.564551   -0.044242
     14          1           0        0.483189   -4.139163   -1.271195
     15          1           0        1.351702   -1.670921    0.011938
     16          6           0       -2.158281   -3.020024    1.858199
     17          8           0       -2.812054   -2.258714    1.128032
     18          8           0       -0.865312   -3.341638    1.764167
     19          1           0       -2.621510   -3.546665    2.694312
     20          1           0       -0.303879   -2.947793    1.015240
     21          6           0       -2.617430    0.426522   -1.158898
     22          8           0       -1.455144    0.555108   -0.739438
     23          8           0       -3.489633   -0.508375   -0.759450
     24          1           0       -3.073187    1.093082   -1.894520
     25          1           0       -3.144886   -1.147775   -0.065907
     26          6           0       -2.912781    3.810515    0.011671
     27          8           0       -3.554717    3.235077   -0.862164
     28          8           0       -1.863202    3.236412    0.616121
     29          1           0       -3.175144    4.818030    0.331669
     30          1           0       -1.719398    2.353342    0.258749
 ---------------------------------------------------------------------
 Rotational constants (GHZ):      0.2553762      0.2222436      0.1505769
 Standard basis: 6-31G (6D, 7F)
 There are   186 symmetry adapted basis functions of A   symmetry.
 Integral buffers will be    131072 words long.
 Raffenetti 2 integral format.
 Two-electron integral symmetry is turned on.
   186 basis functions,   444 primitive gaussians,   186 cartesian basis functions
    72 alpha electrons       72 beta electrons
       nuclear repulsion energy      1334.9896658833 Hartrees.
 NAtoms=   30 NActive=   30 NUniq=   30 SFac= 7.50D-01 NAtFMM=   80 NAOKFM=F Big=F
 One-electron integrals computed using PRISM.
 NBasis=   186 RedAO= T  NBF=   186
 NBsUse=   186 1.00D-06 NBFU=   186
 Initial guess read from the read-write file.
 B after Tr=     0.000000    0.000000    0.000000
         Rot=    1.000000    0.000000    0.000000    0.000000 Ang=   0.00 deg.
 Initial guess orbital symmetries:
       Occupied  (A) (A) (A) (A) (A) (A) (A) (A) (A) (A) (A) (A)
                 (A) (A) (A) (A) (A) (A) (A) (A) (A) (A) (A) (A)
                 (A) (A) (A) (A) (A) (A) (A) (A) (A) (A) (A) (A)
                 (A) (A) (A) (A) (A) (A) (A) (A) (A) (A) (A) (A)
                 (A) (A) (A) (A) (A) (A) (A) (A) (A) (A) (A) (A)
                 (A) (A) (A) (A) (A) (A) (A) (A) (A) (A) (A) (A)
       Virtual   (A) (A) (A) (A) (A) (A) (A) (A) (A) (A) (A) (A)
                 (A) (A) (A) (A) (A) (A) (A) (A) (A) (A) (A) (A)
                 (A) (A) (A) (A) (A) (A) (A) (A) (A) (A) (A) (A)
                 (A) (A) (A) (A) (A) (A) (A) (A) (A) (A) (A) (A)
                 (A) (A) (A) (A) (A) (A) (A) (A) (A) (A) (A) (A)
                 (A) (A) (A) (A) (A) (A) (A) (A) (A) (A) (A) (A)
                 (A) (A) (A) (A) (A) (A) (A) (A) (A) (A) (A) (A)
                 (A) (A) (A) (A) (A) (A) (A) (A) (A) (A) (A) (A)
                 (A) (A) (A) (A) (A) (A) (A) (A) (A) (A) (A) (A)
                 (A) (A) (A) (A) (A) (A)
 Harris functional with IExCor=  402 diagonalized for initial guess.
 ExpMin= 1.61D-01 ExpMax= 5.48D+03 ExpMxC= 8.25D+02 IAcc=1 IRadAn=         1 AccDes= 0.00D+00
 HarFok:  IExCor=  402 AccDes= 0.00D+00 IRadAn=         1 IDoV= 1
 ScaDFX=  1.000000  1.000000  1.000000  1.000000
 FoFCou: FMM=F IPFlag=           0 FMFlag=      100000 FMFlg1=           0
         NFxFlg=           0 DoJE=T BraDBF=F KetDBF=T FulRan=T
         Omega=  0.000000  0.000000  1.000000  0.000000  0.000000 ICntrl=     500 IOpCl=  0
[...]
                 (A) (A) (A) (A) (A) (A) (A) (A) (A) (A) (A) (A)
                 (A) (A) (A) (A) (A) (A) (A) (A) (A) (A) (A) (A)
                 (A) (A) (A) (A) (A) (A) (A) (A) (A) (A) (A) (A)
                 (A) (A) (A) (A) (A) (A)
 The electronic state is 1-A.
 Alpha  occ. eigenvalues --  -19.22458 -19.22062 -19.21381 -19.20811 -19.20760
 Alpha  occ. eigenvalues --  -19.19849 -19.18926 -19.18578 -19.18406 -19.18157
 Alpha  occ. eigenvalues --  -19.17415 -19.15237 -10.37369 -10.36425 -10.36321
 Alpha  occ. eigenvalues --  -10.35993 -10.34470 -10.32939  -1.15800  -1.14363
 Alpha  occ. eigenvalues --   -1.14053  -1.13513  -1.12788  -1.10777  -1.07213
 Alpha  occ. eigenvalues --   -1.06086  -1.05427  -1.05162  -1.04164  -1.02306
 Alpha  occ. eigenvalues --   -0.71257  -0.69767  -0.69308  -0.67892  -0.67564
 Alpha  occ. eigenvalues --   -0.66044  -0.59248  -0.56829  -0.56118  -0.54960
 Alpha  occ. eigenvalues --   -0.54325  -0.53255  -0.53063  -0.51213  -0.50872
 Alpha  occ. eigenvalues --   -0.50183  -0.49407  -0.48421  -0.47220  -0.47091
 Alpha  occ. eigenvalues --   -0.46704  -0.46580  -0.45608  -0.43848  -0.43776
 Alpha  occ. eigenvalues --   -0.43376  -0.39801  -0.38716  -0.38108  -0.37005
 Alpha  occ. eigenvalues --   -0.36173  -0.35288  -0.34489  -0.34447  -0.34265
 Alpha  occ. eigenvalues --   -0.33253  -0.32213  -0.31765  -0.31572  -0.31327
 Alpha  occ. eigenvalues --   -0.30628  -0.28382
 Alpha virt. eigenvalues --   -0.05595  -0.04306  -0.04083  -0.03716  -0.02767
 Alpha virt. eigenvalues --   -0.01112   0.08295   0.09539   0.10207   0.11482
 Alpha virt. eigenvalues --    0.12419   0.13205   0.13833   0.14242   0.15451
 Alpha virt. eigenvalues --    0.16954   0.18688   0.19952   0.22641   0.23781
 Alpha virt. eigenvalues --    0.24702   0.25313   0.25545   0.26195   0.27037
 Alpha virt. eigenvalues --    0.28516   0.30941   0.31917   0.34723   0.35367
 Alpha virt. eigenvalues --    0.46210   0.48659   0.49054   0.49457   0.50334
 Alpha virt. eigenvalues --    0.50644   0.51615   0.52492   0.53675   0.54430
 Alpha virt. eigenvalues --    0.56068   0.57497   0.58482   0.60752   0.61997
 Alpha virt. eigenvalues --    0.64332   0.64991   0.66220   0.68263   0.69282
 Alpha virt. eigenvalues --    0.70612   0.71287   0.72166   0.74538   0.76271
 Alpha virt. eigenvalues --    0.77435   0.78631   0.79085   0.80008   0.81681
 Alpha virt. eigenvalues --    0.82811   0.84418   0.85232   0.85497   0.85744
 Alpha virt. eigenvalues --    0.85957   0.87932   0.88211   0.90158   0.91461
 Alpha virt. eigenvalues --    0.93142   0.93792   0.96445   0.97545   0.97593
 Alpha virt. eigenvalues --    0.99448   0.99602   1.00115   1.01679   1.03339
 Alpha virt. eigenvalues --    1.04284   1.05925   1.09304   1.10907   1.11802
 Alpha virt. eigenvalues --    1.14046   1.15275   1.16905   1.18520   1.21363
 Alpha virt. eigenvalues --    1.24138   1.26253   1.27313   1.27598   1.30374
 Alpha virt. eigenvalues --    1.31288   1.33657   1.34829   1.40124   1.40292
 Alpha virt. eigenvalues --    1.46115   1.51249   1.62622   1.64935   1.67200
 Alpha virt. eigenvalues --    1.68150   1.69162   1.70514   1.77252   1.81979
 Alpha virt. eigenvalues --    1.88666   1.89451   1.93939   2.04276
          Condensed to atoms (all electrons):
              1          2          3          4          5          6
     1  C    4.667555   0.290308   0.264263   0.363539  -0.017068   0.001431
     2  O    0.290308   8.332240  -0.082068  -0.062318   0.002907   0.001025
     3  O    0.264263  -0.082068   8.252892  -0.060084   0.184156   0.002449
     4  H    0.363539  -0.062318  -0.060084   0.506685   0.002284   0.000014
     5  H   -0.017068   0.002907   0.184156   0.002284   0.289840  -0.009444
     6  C    0.001431   0.001025   0.002449   0.000014  -0.009444   4.622360
     7  O    0.002348  -0.000792  -0.046128  -0.000067   0.097630   0.367528
     8  O    0.000938  -0.029423   0.000321  -0.000058  -0.000520   0.232333
     9  H    0.000012  -0.000066  -0.000097  -0.000001   0.001154   0.380931
    10  H   -0.004886   0.071267  -0.000897   0.000745   0.002079  -0.017091
    11  C    0.001735   0.001256   0.000010  -0.001269   0.000001   0.000000
    12  O   -0.005145  -0.000847   0.000073   0.023610   0.000000   0.000000
    13  O    0.000389  -0.036396  -0.000017   0.000305   0.000002   0.000000
    14  H    0.000003  -0.000077   0.000000   0.000226   0.000000   0.000000
    15  H   -0.003121   0.075586   0.000438   0.000050  -0.000005  -0.000006
    16  C    0.000000   0.000000   0.000000   0.000000   0.000000   0.000000
    17  O    0.000000   0.000000   0.000000   0.000000   0.000000   0.000000
    18  O    0.000000  -0.000004   0.000000   0.000000   0.000000   0.000000
    19  H    0.000000   0.000000   0.000000   0.000000   0.000000   0.000000
    20  H    0.000009   0.000060   0.000000  -0.000004   0.000000   0.000000
    21  C    0.000023   0.000058   0.000000   0.000002   0.000000   0.000000
    22  O    0.000073  -0.000105   0.000000  -0.000005   0.000000  -0.000004
    23  O    0.000000   0.000000   0.000000   0.000000   0.000000   0.000000
    24  H   -0.000002  -0.000001   0.000000   0.000000   0.000000   0.000000
    25  H    0.000000  -0.000001   0.000000   0.000000   0.000000   0.000000
    26  C    0.000256  -0.000004   0.000129  -0.000003   0.000144   0.000275
    27  O   -0.000005   0.000000   0.000000   0.000000   0.000002   0.000002
    28  O    0.005903  -0.001529  -0.000902  -0.000046   0.001777   0.005018
    29  H   -0.000028  -0.000007   0.000077  -0.000002   0.000013  -0.000003
    30  H   -0.000165   0.001705  -0.000111  -0.000031  -0.000026  -0.000036
              7          8          9         10         11         12
     1  C    0.002348   0.000938   0.000012  -0.004886   0.001735  -0.005145
     2  O   -0.000792  -0.029423  -0.000066   0.071267   0.001256  -0.000847
     3  O   -0.046128   0.000321  -0.000097  -0.000897   0.000010   0.000073
     4  H   -0.000067  -0.000058  -0.000001   0.000745  -0.001269   0.023610
     5  H    0.097630  -0.000520   0.001154   0.002079   0.000001   0.000000
     6  C    0.367528   0.232333   0.380931  -0.017091   0.000000   0.000000
     7  O    8.197542  -0.083547  -0.061853   0.002864   0.000000   0.000000
     8  O   -0.083547   8.287276  -0.078769   0.201297   0.000000   0.000000
     9  H   -0.061853  -0.078769   0.569618   0.003722   0.000000   0.000000
    10  H    0.002864   0.201297   0.003722   0.298996  -0.000014  -0.000001
    11  C    0.000000   0.000000   0.000000  -0.000014   4.646304   0.477132
    12  O    0.000000   0.000000   0.000000  -0.000001   0.477132   8.039417
    13  O    0.000000  -0.000003   0.000000   0.000015   0.120601  -0.086453
    14  H    0.000000   0.000000   0.000000   0.000000   0.365405  -0.056053
    15  H    0.000004  -0.000002   0.000000   0.000722  -0.009881   0.003239
    16  C    0.000000   0.000000   0.000000   0.000000   0.000182   0.000001
    17  O    0.000000   0.000000   0.000000   0.000000   0.000018   0.000000
    18  O    0.000000   0.000000   0.000000   0.000001  -0.000302  -0.000007
    19  H    0.000000   0.000000   0.000000   0.000000  -0.000002   0.000000
    20  H    0.000000   0.000001   0.000000  -0.000003   0.000811   0.000222
    21  C    0.000000  -0.000002   0.000000  -0.000008   0.000114  -0.000002
    22  O    0.000000  -0.000048   0.000000   0.000354   0.000128  -0.000005
    23  O    0.000000   0.000000   0.000000   0.000000   0.000000   0.000000
    24  H    0.000000   0.000000   0.000000   0.000002   0.000000   0.000000
    25  H    0.000000   0.000000   0.000000   0.000000   0.000034   0.000000
    26  C   -0.000047  -0.000013   0.000000   0.000010   0.000000   0.000000
    27  O    0.000000   0.000000   0.000000   0.000001   0.000000   0.000000
    28  O   -0.000893  -0.000818  -0.000026   0.001306   0.000000   0.000000
    29  H    0.000174  -0.000008   0.000000  -0.000005   0.000000   0.000000
    30  H   -0.000026   0.001347  -0.000007   0.000011  -0.000005  -0.000001
             13         14         15         16         17         18
     1  C    0.000389   0.000003  -0.003121   0.000000   0.000000   0.000000
     2  O   -0.036396  -0.000077   0.075586   0.000000   0.000000  -0.000004
     3  O   -0.000017   0.000000   0.000438   0.000000   0.000000   0.000000
     4  H    0.000305   0.000226   0.000050   0.000000   0.000000   0.000000
     5  H    0.000002   0.000000  -0.000005   0.000000   0.000000   0.000000
     6  C    0.000000   0.000000  -0.000006   0.000000   0.000000   0.000000
     7  O    0.000000   0.000000   0.000004   0.000000   0.000000   0.000000
     8  O   -0.000003   0.000000  -0.000002   0.000000   0.000000   0.000000
     9  H    0.000000   0.000000   0.000000   0.000000   0.000000   0.000000
    10  H    0.000015   0.000000   0.000722   0.000000   0.000000   0.000001
    11  C    0.120601   0.365405  -0.009881   0.000182   0.000018  -0.000302
    12  O   -0.086453  -0.056053   0.003239   0.000001   0.000000  -0.000007
    13  O    8.512149  -0.088878   0.187051   0.001516  -0.000239  -0.031003
    14  H   -0.088878   0.606273   0.003296   0.000125  -0.000011   0.000656
    15  H    0.187051   0.003296   0.266432   0.000031  -0.000005   0.000403
    16  C    0.001516   0.000125   0.000031   4.622717   0.402739   0.216620
    17  O   -0.000239  -0.000011  -0.000005   0.402739   8.158813  -0.086826
    18  O   -0.031003   0.000656   0.000403   0.216620  -0.086826   8.322407
    19  H   -0.000057   0.000004   0.000001   0.378267  -0.065722  -0.084916
    20  H    0.054473  -0.000253  -0.000045  -0.010383   0.004429   0.205787
    21  C    0.000575   0.000000  -0.000095   0.000340   0.000818  -0.000032
    22  O   -0.000190  -0.000009   0.004206   0.000288  -0.000442  -0.000042
    23  O   -0.000028   0.000000  -0.000029   0.000794  -0.030638   0.000021
    24  H    0.000002   0.000000   0.000023   0.000007  -0.000039   0.000000
    25  H    0.000267   0.000003   0.000020  -0.005474   0.076769  -0.000354
    26  C    0.000000   0.000000  -0.000003   0.000000   0.000000   0.000000
    27  O    0.000000   0.000000   0.000000   0.000000   0.000000   0.000000
    28  O    0.000000   0.000000  -0.000017   0.000000   0.000000   0.000000
    29  H    0.000000   0.000000   0.000000   0.000000   0.000000   0.000000
    30  H   -0.000019   0.000000   0.000113   0.000000   0.000001   0.000000
             19         20         21         22         23         24
     1  C    0.000000   0.000009   0.000023   0.000073   0.000000  -0.000002
     2  O    0.000000   0.000060   0.000058  -0.000105   0.000000  -0.000001
     3  O    0.000000   0.000000   0.000000   0.000000   0.000000   0.000000
     4  H    0.000000  -0.000004   0.000002  -0.000005   0.000000   0.000000
     5  H    0.000000   0.000000   0.000000   0.000000   0.000000   0.000000
     6  C    0.000000   0.000000   0.000000  -0.000004   0.000000   0.000000
     7  O    0.000000   0.000000   0.000000   0.000000   0.000000   0.000000
     8  O    0.000000   0.000001  -0.000002  -0.000048   0.000000   0.000000
     9  H    0.000000   0.000000   0.000000   0.000000   0.000000   0.000000
    10  H    0.000000  -0.000003  -0.000008   0.000354   0.000000   0.000002
    11  C   -0.000002   0.000811   0.000114   0.000128   0.000000   0.000000
    12  O    0.000000   0.000222  -0.000002  -0.000005   0.000000   0.000000
    13  O   -0.000057   0.054473   0.000575  -0.000190  -0.000028   0.000002
    14  H    0.000004  -0.000253   0.000000  -0.000009   0.000000   0.000000
    15  H    0.000001  -0.000045  -0.000095   0.004206  -0.000029   0.000023
    16  C    0.378267  -0.010383   0.000340   0.000288   0.000794   0.000007
    17  O   -0.065722   0.004429   0.000818  -0.000442  -0.030638  -0.000039
    18  O   -0.084916   0.205787  -0.000032  -0.000042   0.000021   0.000000
    19  H    0.593421   0.004642   0.000004   0.000001  -0.000055   0.000000
    20  H    0.004642   0.289683   0.000157   0.000636  -0.000070   0.000004
    21  C    0.000004   0.000157   4.701176   0.360158   0.220177   0.354372
    22  O    0.000001   0.000636   0.360158   8.240946  -0.088732  -0.065736
    23  O   -0.000055  -0.000070   0.220177  -0.088732   8.302681  -0.070286
    24  H    0.000000   0.000004   0.354372  -0.065736  -0.070286   0.549120
    25  H    0.000773   0.000618  -0.012624   0.005059   0.197183   0.003895
    26  C    0.000000   0.000000   0.002015   0.000870   0.000011  -0.000860
    27  O    0.000000   0.000000  -0.003943  -0.000851   0.000057   0.021812
    28  O    0.000000   0.000000  -0.000061  -0.036501  -0.000019   0.000343
    29  H    0.000000   0.000000   0.000012  -0.000089   0.000000   0.000215
    30  H    0.000000  -0.000001  -0.003524   0.079790   0.000528   0.000095
             25         26         27         28         29         30
     1  C    0.000000   0.000256  -0.000005   0.005903  -0.000028  -0.000165
     2  O   -0.000001  -0.000004   0.000000  -0.001529  -0.000007   0.001705
     3  O    0.000000   0.000129   0.000000  -0.000902   0.000077  -0.000111
     4  H    0.000000  -0.000003   0.000000  -0.000046  -0.000002  -0.000031
     5  H    0.000000   0.000144   0.000002   0.001777   0.000013  -0.000026
     6  C    0.000000   0.000275   0.000002   0.005018  -0.000003  -0.000036
     7  O    0.000000  -0.000047   0.000000  -0.000893   0.000174  -0.000026
     8  O    0.000000  -0.000013   0.000000  -0.000818  -0.000008   0.001347
     9  H    0.000000   0.000000   0.000000  -0.000026   0.000000  -0.000007
    10  H    0.000000   0.000010   0.000001   0.001306  -0.000005   0.000011
    11  C    0.000034   0.000000   0.000000   0.000000   0.000000  -0.000005
    12  O    0.000000   0.000000   0.000000   0.000000   0.000000  -0.000001
    13  O    0.000267   0.000000   0.000000   0.000000   0.000000  -0.000019
    14  H    0.000003   0.000000   0.000000   0.000000   0.000000   0.000000
    15  H    0.000020  -0.000003   0.000000  -0.000017   0.000000   0.000113
    16  C   -0.005474   0.000000   0.000000   0.000000   0.000000   0.000000
    17  O    0.076769   0.000000   0.000000   0.000000   0.000000   0.000001
    18  O   -0.000354   0.000000   0.000000   0.000000   0.000000   0.000000
    19  H    0.000773   0.000000   0.000000   0.000000   0.000000   0.000000
    20  H    0.000618   0.000000   0.000000   0.000000   0.000000  -0.000001
    21  C   -0.012624   0.002015  -0.003943  -0.000061   0.000012  -0.003524
    22  O    0.005059   0.000870  -0.000851  -0.036501  -0.000089   0.079790
    23  O    0.197183   0.000011   0.000057  -0.000019   0.000000   0.000528
    24  H    0.003895  -0.000860   0.021812   0.000343   0.000215   0.000095
    25  H    0.303422   0.000000   0.000000   0.000003   0.000000   0.000002
    26  C    0.000000   4.672203   0.449168   0.172495   0.363132  -0.014531
    27  O    0.000000   0.449168   8.102668  -0.090950  -0.063273   0.003187
    28  O    0.000003   0.172495  -0.090950   8.442406  -0.092165   0.188807
    29  H    0.000000   0.363132  -0.063273  -0.092165   0.632631   0.004086
    30  H    0.000002  -0.014531   0.003187   0.188807   0.004086   0.304525
 Mulliken atomic charges:
              1
     1  C    0.431634
     2  O   -0.562775
     3  O   -0.514503
     4  H    0.226426
     5  H    0.445074
     6  C    0.413218
     7  O   -0.474737
     8  O   -0.530300
     9  H    0.185381
    10  H    0.439516
    11  C    0.397742
    12  O   -0.395180
    13  O   -0.634063
    14  H    0.169291
    15  H    0.471594
    16  C    0.392231
    17  O   -0.459665
    18  O   -0.542408
    19  H    0.173638
    20  H    0.449228
    21  C    0.380290
    22  O   -0.499750
    23  O   -0.531593
    24  H    0.207036
    25  H    0.430405
    26  C    0.354753
    27  O   -0.417874
    28  O   -0.594133
    29  H    0.155241
    30  H    0.434285
 Sum of Mulliken atomic charges =   0.00000
 Mulliken charges with hydrogens summed into heavy atoms:
              1
     1  C    0.658060
     2  O   -0.562775
     3  O   -0.069429
     6  C    0.598599
     7  O   -0.474737
     8  O   -0.090784
    11  C    0.567032
    12  O   -0.395180
    13  O   -0.162469
    16  C    0.565869
    17  O   -0.459665
    18  O   -0.093181
    21  C    0.587326
    22  O   -0.499750
    23  O   -0.101189
    26  C    0.509994
    27  O   -0.417874
    28  O   -0.159848
 Sum of Mulliken charges with hydrogens summed into heavy atoms =   0.00000
 Electronic spatial extent (au):  <R**2>=           6105.2339
 Charge=              0.0000 electrons
 Dipole moment (field-independent basis, Debye):
    X=             -0.9325    Y=             -2.6529    Z=              1.9780  Tot=              3.4380
 Quadrupole moment (field-independent basis, Debye-Ang):
   XX=            -97.3972   YY=           -114.9113   ZZ=           -104.4981
   XY=              7.3392   XZ=              5.0788   YZ=              3.1768
 Traceless Quadrupole moment (field-independent basis, Debye-Ang):
   XX=              8.2050   YY=             -9.3091   ZZ=              1.1041
   XY=              7.3392   XZ=              5.0788   YZ=              3.1768
 Octapole moment (field-independent basis, Debye-Ang**2):
  XXX=            -51.8926  YYY=            -45.3845  ZZZ=             39.4110  XYY=              9.9926
  XXY=            -13.0313  XXZ=             33.7829  XZZ=              4.2501  YZZ=              8.2231
  YYZ=             21.3903  XYZ=             -5.7170
 Hexadecapole moment (field-independent basis, Debye-Ang**3):
 XXXX=          -4073.6135 YYYY=          -2177.0483 ZZZZ=          -1211.1138 XXXY=            240.3218
 XXXZ=            -27.2732 YYYX=            -38.3814 YYYZ=             73.8504 ZZZX=             31.2531
 ZZZY=            -34.7821 XXYY=          -1102.3300 XXZZ=           -725.9040 YYZZ=           -605.5493
 XXYZ=             26.3472 YYXZ=             53.7835 ZZXY=            -16.1165
 N-N= 1.425861206765D+03 E-N=-5.528296317412D+03  KE= 1.131769473688D+03
 1\1\GINC-LSQC07\FOpt\RB3LYP\6-31G\C6H12O12\LITAO\11-May-2015\0\\#opt b
 3lyp/6-31g\\Title Card Required\\0,1\C,0.3035472895,2.4742673856,0.519
 2255133\O,-0.0280296902,1.5364434407,-0.2710726778\O,1.0861411446,3.47
 39394083,0.2040937854\H,-0.0760994008,2.4909655204,1.5396083468\H,1.49
 17676189,3.4567816108,-0.7502939135\C,1.8045104715,2.4037785033,-2.971
 0993478\O,2.010259686,3.3623553384,-2.1962682531\O,1.0114416392,1.3630
 148038,-2.7333869175\H,2.2695682874,2.3526923826,-3.9544520729\H,0.595
 5782275,1.3594758048,-1.8100196822\C,-1.8557690483,-0.0386400534,2.028
 2322579\O,-1.4927500864,0.9834449436,2.6079731301\O,-1.4841463306,-0.3
 764193319,0.7597922203\H,-2.5159346142,-0.7939424707,2.4592331257\H,-0
 .8693600106,0.3108837364,0.3134164491\C,-1.9225824819,-3.6249946293,-0
 .553884963\O,-0.8641635482,-3.9535655345,0.0072465797\O,-2.4856982788,
 -2.417008159,-0.5542894673\H,-2.5207685915,-4.3393299934,-1.121046599\
 H,-2.0079266726,-1.6785619849,-0.0512708612\C,2.011081398,-2.192134599
 5,0.8047339391\O,1.4753265066,-1.2966294475,0.109608075\O,1.436960154,
 -3.3478511327,1.1117620071\H,3.0125347597,-2.0837538904,1.221592807\H,
 0.5227375194,-3.502936687,0.7084754252\C,4.1061239883,0.7677253281,0.2
 917714011\O,4.4946573882,-0.205964036,0.9475865921\O,2.9065734623,0.86
 13070443,-0.3260680951\H,4.6967947146,1.6740168708,0.1391704834\H,2.33
 41810986,0.0250638281,-0.2024652877\\Version=EM64L-G09RevA.01\State=1-
 A\HF=-1138.2402451\RMSD=3.292e-09\RMSF=1.288e-05\Dipole=-1.1467869,0.1
 025962,-0.7098827\Quadrupole=1.096909,-3.6669332,2.5700242,6.8427346,-
 5.7354964,-1.4688221\PG=C01 [X(C6H12O12)]\\@


 THE SOLUTION TO A PROBLEM CHANGES THE PROBLEM.

                                 -- JOHN PEERS
           PAUL DICKSON'S "THE OFFICIAL RULES"
 Job cpu time:  0 days  1 hours 51 minutes 10.3 seconds.
 File lengths (MBytes):  RWF=     27 Int=      0 D2E=      0 Chk=      4 Scr=      1
 Normal termination of Gaussian 09 at Mon May 11 22:20:28 2015.
