29
  This energy is -0.0243893 and Call times are: 1173
C	0.219904	-1.12077	-0.433161
N	0.814212	-2.28019	-0.983435
H	1.80732	-2.27217	-1.25745
H	0.263383	-3.14114	-1.11566
N	0.962252	0.00611316	-0.265997
C	0.415156	1.13324	0.260407
O	1.10011	2.13053	0.400568
N	-0.906734	1.14657	0.633031
C	-1.67738	0.0374402	0.479639
H	-1.32812	2.01311	1.03796
C	-1.12709	-1.12425	-0.0591265
H	-2.71869	0.0552465	0.775589
H	-1.73698	-2.01027	-0.183266
C	5.28972	0.10098	-1.24404
O	5.13128	-0.0147347	-2.32729
N	4.32897	0.601875	-0.43706
C	4.50504	0.688465	0.903489
H	3.44756	0.873111	-0.844856
N	3.42726	1.07991	1.72973
H	2.82955	1.8323	1.23717
H	3.80694	1.47723	2.65989
N	5.66736	0.334854	1.49453
C	6.65706	-0.139487	0.719343
C	6.48514	-0.28806	-0.647577
N	7.59267	-0.870825	-1.14351
C	8.44931	-1.09099	-0.12442
N	7.86805	-0.645577	1.00799
H	9.43719	-1.53037	-0.207852
H	8.27415	-0.687629	1.92981
