29
  This energy is -0.00564017 and Call times are: 635
C	0.0110161	0.0272011	1.22116
N	-0.0740635	-0.295898	2.59544
H	-0.335804	-1.24853	2.88769
H	0.123731	0.414178	3.31571
N	-0.253455	-0.922679	0.28486
C	-0.178811	-0.637934	-1.04186
O	-0.420215	-1.50537	-1.86203
N	0.16804	0.624983	-1.45556
C	0.438861	1.5982	-0.546113
H	0.225637	0.844637	-2.4758
C	0.365497	1.31772	0.817176
H	0.711635	2.59149	-0.879533
H	0.58033	2.08967	1.54543
C	4.25748	-0.13816	0.329887
O	3.31151	-0.00749924	0.877609
N	4.30711	-0.788689	-0.85312
C	5.46195	-0.896942	-1.55326
H	3.45192	-1.15981	-1.2374
N	5.44661	-1.45514	-2.8516
H	4.73172	-2.26259	-2.90557
H	6.42921	-1.83036	-3.09844
N	6.63121	-0.41339	-1.07962
C	6.62596	0.213569	0.108789
C	5.44975	0.384674	0.821078
N	5.72891	1.12507	1.91015
C	7.04526	1.42149	1.89613
N	7.58275	0.864911	0.791616
H	7.57707	1.98998	2.65105
H	8.5504	0.928735	0.515915
