29
  This energy is -0.00149713 and Call times are: 321
C	0.511009	0.385256	-1.04046
N	0.836943	0.622772	-2.39605
H	0.283665	0.18332	-3.14583
H	1.6272	1.2347	-2.64737
N	-0.535182	-0.425045	-0.727762
C	-0.868976	-0.669405	0.566728
O	-1.81033	-1.3988	0.822171
N	-0.146034	-0.0948368	1.58341
C	0.905779	0.720254	1.30609
H	-0.402236	-0.282359	2.57922
C	1.25731	0.978064	-0.0177537
H	1.47115	1.16972	2.11266
H	2.09438	1.62668	-0.24367
C	4.97853	-1.11932	-0.396086
O	4.23973	-1.93479	-0.362816
N	5.70833	-0.86937	-1.50517
C	6.57415	0.171106	-1.56293
H	5.566	-1.44807	-2.31856
N	7.21009	0.488817	-2.78447
H	7.44724	-0.411986	-3.33061
H	8.1194	1.0387	-2.58954
N	6.79576	0.974491	-0.499541
C	6.10978	0.737357	0.631216
C	5.17946	-0.287221	0.700902
N	4.58361	-0.224499	1.9064
C	5.11503	0.810836	2.58942
N	6.04166	1.39374	1.80189
H	4.85472	1.10665	3.59969
H	6.59605	2.19897	2.04822
