29
  This energy is -0.0140422 and Call times are: 1036
C	0.954057	0.690031	-0.325173
N	2.23856	1.26405	-0.469427
H	3.03858	0.880031	0.0539448
H	2.38761	2.06842	-1.09624
N	0.776297	-0.370978	0.506419
C	-0.447564	-0.940692	0.662714
O	-0.58219	-1.89036	1.41332
N	-1.52903	-0.446063	-0.0244437
C	-1.38652	0.613476	-0.863881
H	-2.47058	-0.883775	0.0953079
C	-0.136147	1.20584	-1.03208
H	-2.24349	0.998071	-1.40231
H	-0.0176331	2.05006	-1.69965
C	6.39426	1.32855	0.0244393
O	5.74693	2.20644	0.173437
N	7.70298	1.45769	-0.284924
C	8.51055	0.377048	-0.409906
H	8.08873	2.38458	-0.378865
N	9.90096	0.556149	-0.589348
H	10.0922	1.41894	-1.20982
H	10.324	-0.32127	-1.05672
N	8.03905	-0.883389	-0.290255
C	6.73517	-1.05151	-0.0126808
C	5.89799	0.0370526	0.172429
N	4.68708	-0.428055	0.532358
C	4.74612	-1.77537	0.578247
N	6.00018	-2.14582	0.248516
H	3.92374	-2.44001	0.818775
H	6.33822	-3.09474	0.207164
