29
  This energy is -0.0271883 and Call times are: 2783
C	-0.333149	1.04067	-0.546007
N	-0.36967	2.34078	-1.10156
H	0.468205	2.93955	-1.07245
H	-1.23015	2.70154	-1.53923
N	0.811088	0.581472	0.0273579
C	0.872342	-0.663739	0.568218
O	1.90849	-1.05309	1.07634
N	-0.231845	-1.48011	0.541327
C	-1.39165	-1.05252	-0.0240173
H	-0.185401	-2.43792	0.957115
C	-1.46619	0.222601	-0.581802
H	-2.25809	-1.70152	-0.0415995
H	-2.38788	0.567679	-1.03327
C	5.48609	1.13047	-0.119472
O	4.8948	2.21293	-0.277585
N	4.72025	-0.0310202	0.267336
C	5.22388	-1.29965	0.482009
H	3.73156	0.159223	0.37635
N	4.35019	-2.2832	0.844824
H	3.36427	-2.12786	0.961423
H	4.72674	-3.20345	0.999346
N	6.51092	-1.59624	0.351154
C	7.2798	-0.529219	-0.0140267
C	6.8709	0.788399	-0.254851
N	7.96521	1.58147	-0.607638
C	9.00481	0.764637	-0.580062
N	8.63997	-0.536951	-0.223002
H	10.023	1.03724	-0.800662
H	9.23908	-1.34146	-0.130059
