29
  This energy is -0.00177437 and Call times are: 6968
C	1.20285	0.18594	0.103377
N	2.48563	0.741437	0.318227
H	2.58129	1.72485	0.610054
H	3.33418	0.171711	0.185937
N	0.0944157	0.952784	0.28286
C	-1.14942	0.443112	0.0830082
O	-2.12745	1.14946	0.250092
N	-1.302	-0.865155	-0.306317
C	-0.215217	-1.65951	-0.494737
H	-2.25835	-1.25777	-0.460183
C	1.06534	-1.14765	-0.292758
H	-0.343097	-2.68988	-0.801684
H	1.93411	-1.77654	-0.441593
C	7.35977	0.248809	-1.18737
O	8.03412	0.681256	-2.13846
N	7.13341	-1.17365	-1.08452
C	6.41031	-1.81007	-0.0939405
H	7.56644	-1.70315	-1.83131
N	6.2983	-3.16878	-0.154607
H	6.7154	-3.72339	-0.881381
H	5.76933	-3.62285	0.571032
N	5.82582	-1.15858	0.903802
C	6.01032	0.192844	0.851981
C	6.72092	0.932022	-0.101939
N	6.67264	2.29438	0.202337
C	5.95282	2.37416	1.30878
N	5.52388	1.11781	1.74732
H	5.70804	3.28187	1.83404
H	4.96584	0.905639	2.55872
