29
  This energy is -0.00571131 and Call times are: 6046
C	0.5906	-0.818792	-0.687662
N	1.02103	-1.66705	-1.7343
H	0.527209	-1.66457	-2.63848
H	1.82898	-2.29359	-1.60472
N	-0.477415	0.00124311	-0.87681
C	-0.910944	0.825768	0.112656
O	-1.8699	1.55142	-0.080309
N	-0.268645	0.839923	1.3266
C	0.802227	0.0329405	1.54932
H	-0.601557	1.47383	2.08802
C	1.25573	-0.816828	0.541932
H	1.30363	0.0494166	2.50878
H	2.10837	-1.4615	0.714608
C	4.95314	-1.27668	0.583153
O	4.57316	-2.24183	1.26903
N	5.36218	-1.51085	-0.78178
C	5.80769	-0.551401	-1.67068
H	5.29584	-2.48271	-1.05867
N	6.15462	-0.953964	-2.92763
H	6.1005	-1.90947	-3.23396
H	6.47831	-0.247912	-3.56736
N	5.91103	0.733172	-1.35326
C	5.53549	1.00748	-0.0699832
C	5.07251	0.114555	0.904517
N	4.79262	0.792602	2.09315
C	5.07908	2.05896	1.84213
N	5.53709	2.24392	0.53418
H	4.98249	2.87421	2.53912
H	5.81954	3.10598	0.0961343
