29
  This energy is 0.000686468 and Call times are: 6099
C	-0.29974	0.358719	-1.12853
N	-0.405043	0.510773	-2.53069
H	0.152408	-0.0857107	-3.15908
H	-1.03712	1.21609	-2.93706
N	0.539468	-0.577259	-0.610301
C	0.658957	-0.743381	0.733186
O	1.41726	-1.58843	1.17392
N	-0.0739453	0.0401237	1.59074
C	-0.922257	0.985237	1.10626
H	0.0174769	-0.0871354	2.62412
C	-1.05299	1.16457	-0.269737
H	-1.49684	1.59925	1.78822
H	-1.72745	1.91614	-0.660431
C	6.92529	0.926283	-1.06237
O	7.34171	1.53216	-2.06528
N	6.19794	1.66341	-0.0559891
C	5.67197	1.1409	1.10999
H	6.09359	2.64627	-0.276591
N	5.01117	1.98829	1.95119
H	4.8901	2.96775	1.76209
H	4.63226	1.59833	2.79789
N	5.78346	-0.139546	1.44102
C	6.46495	-0.881333	0.519939
C	7.03399	-0.451827	-0.685473
N	7.64506	-1.52122	-1.34421
C	7.44991	-2.5662	-0.55765
N	6.73374	-2.2289	0.594766
H	7.78875	-3.56979	-0.751941
H	6.45636	-2.83731	1.34823
