29
  This energy is -0.0052808 and Call times are: 5580
C	0.830049	-0.827417	0.344251
N	1.66506	-1.70012	1.08005
H	1.595	-1.7396	2.10716
H	2.34908	-2.30287	0.5995
N	-0.0666818	-0.0394841	0.995347
C	-0.880409	0.807514	0.311774
O	-1.67583	1.50355	0.916946
N	-0.805175	0.877601	-1.05784
C	0.0800075	0.103908	-1.74007
H	-1.43073	1.52881	-1.58418
C	0.919569	-0.768441	-1.0496
H	0.133776	0.16445	-2.81974
H	1.62633	-1.38676	-1.58866
C	5.47041	-0.136384	-0.971259
O	4.42157	-0.3066	-1.61726
N	6.67091	0.240499	-1.67975
C	7.91028	0.466253	-1.11217
H	6.53384	0.333658	-2.6788
N	8.93909	0.816332	-1.9376
H	8.8367	0.917278	-2.93213
H	9.83776	0.978069	-1.51479
N	8.13746	0.356588	0.190875
C	7.03122	0.00104118	0.90705
C	5.7378	-0.249136	0.431895
N	4.88742	-0.585676	1.48761
C	5.64719	-0.539788	2.56899
N	6.96608	-0.185975	2.26888
H	5.32055	-0.744733	3.57451
H	7.73712	-0.0817726	2.90876
