29
  This energy is -0.000187467 and Call times are: 9537
C	0.938098	-0.781787	0.0298573
N	2.10866	-1.49834	0.371312
H	2.64462	-1.24274	1.21323
H	2.4366	-2.2798	-0.21512
N	0.520474	0.246404	0.815545
C	-0.600755	0.95071	0.509555
O	-0.955101	1.86768	1.22858
N	-1.33162	0.628441	-0.607764
C	-0.94239	-0.393602	-1.41493
H	-2.19406	1.16971	-0.843663
C	0.205815	-1.12292	-1.11106
H	-1.52345	-0.642007	-2.29408
H	0.51988	-1.93792	-1.75101
C	7.23945	0.0955136	-0.727567
O	6.0748	0.22705	-1.14306
N	8.28011	-0.244843	-1.66904
C	9.6168	-0.425943	-1.36968
H	7.94334	-0.347196	-2.61862
N	10.4644	-0.746539	-2.39001
H	10.1628	-0.85541	-3.34234
H	11.4357	-0.876852	-2.16174
N	10.1038	-0.302217	-0.141246
C	9.15758	0.0194541	0.788369
C	7.78632	0.223947	0.590572
N	7.16104	0.537698	1.79951
C	8.12847	0.522576	2.70093
N	9.3683	0.211252	2.1347
H	8.00939	0.721535	3.75259
H	10.2577	0.136017	2.60167
