29
  This energy is -0.00295771 and Call times are: 5804
C	-0.340648	1.14845	0.239035
N	-1.01635	2.38975	0.292323
H	-1.89059	2.52598	-0.235461
H	-0.64366	3.16745	0.856612
N	-0.84731	0.133606	-0.510819
C	-0.217447	-1.06867	-0.57884
O	-0.690504	-1.96275	-1.25724
N	0.949387	-1.27386	0.116008
C	1.48332	-0.280816	0.875199
H	1.43431	-2.1983	0.0641331
C	0.846112	0.956362	0.952486
H	2.40344	-0.449726	1.42024
H	1.26758	1.75049	1.55592
C	4.91406	1.00445	0.880464
O	4.37334	1.97601	1.43726
N	5.39532	-0.0858847	1.69578
C	6.01567	-1.23101	1.23425
H	5.2374	0.0545447	2.68619
N	6.40762	-2.16192	2.15192
H	6.26594	-2.05339	3.14081
H	6.85892	-2.99208	1.80593
N	6.24359	-1.45871	-0.053295
C	5.80636	-0.454753	-0.868137
C	5.16998	0.738458	-0.504023
N	4.88168	1.50245	-1.63722
C	5.33191	0.789646	-2.65601
N	5.90618	-0.415326	-2.2401
H	5.2784	1.07425	-3.69326
H	6.31952	-1.13192	-2.81495
