29
  This energy is -0.00450312 and Call times are: 4189
C	-0.39019	-0.545477	-1.02094
N	-0.997643	-1.40983	-1.96123
H	-1.54747	-2.21963	-1.63979
H	-0.897501	-1.24005	-2.97281
N	-0.533171	-0.785137	0.309854
C	0.0403318	0.0300571	1.23364
O	-0.101758	-0.204916	2.42023
N	0.777968	1.11572	0.829122
C	0.940916	1.38432	-0.493336
H	1.2193	1.74309	1.53909
C	0.357377	0.55524	-1.44974
H	1.52374	2.24193	-0.804888
H	0.484365	0.765112	-2.50437
C	6.58328	0.417553	0.882958
O	7.59967	0.861337	1.44541
N	5.59618	-0.276957	1.67572
C	4.41898	-0.826593	1.20533
H	5.84009	-0.336521	2.65681
N	3.59985	-1.45014	2.10118
H	3.81217	-1.52652	3.08038
H	2.74523	-1.84761	1.74876
N	4.05743	-0.773057	-0.0705883
C	4.95951	-0.125133	-0.864016
C	6.17368	0.463677	-0.489321
N	6.80543	1.02704	-1.60038
C	5.99468	0.784404	-2.61652
N	4.85208	0.0829446	-2.2201
H	6.16445	1.07793	-3.63866
H	4.08493	-0.222175	-2.79732
