29
  This energy is -0.000714657 and Call times are: 7552
C	1.1551	0.0286552	-0.396278
N	2.4588	-0.305795	-0.830745
H	2.74551	-1.2933	-0.894367
H	3.13268	0.430628	-1.08707
N	0.279378	-0.956449	-0.0622504
C	-0.978919	-0.661744	0.35807
O	-1.74564	-1.56133	0.651803
N	-1.38384	0.647385	0.450982
C	-0.53378	1.65667	0.124891
H	-2.35147	0.874727	0.77417
C	0.759078	1.36641	-0.307407
H	-0.859857	2.68631	0.200575
H	1.43985	2.16697	-0.568281
C	7.50856	-0.530374	1.30113
O	7.07941	-0.776537	2.442
N	8.23855	-1.55718	0.59546
C	8.77796	-1.44324	-0.671513
H	8.33303	-2.41617	1.12347
N	9.43978	-2.52029	-1.18561
H	9.5512	-3.38637	-0.688369
H	9.82942	-2.42721	-2.10868
N	8.67929	-0.338584	-1.4006
C	7.99639	0.664972	-0.776427
C	7.41403	0.651879	0.497148
N	6.80555	1.87975	0.767401
C	7.01546	2.6126	-0.31315
N	7.73864	1.91681	-1.2866
H	6.68295	3.62662	-0.457935
H	8.02705	2.24697	-2.19358
