29
  This energy is -0.00674355 and Call times are: 7435
C	-0.999518	-0.102312	0.694698
N	-1.90684	-0.285555	1.76401
H	-1.55625	-0.49476	2.70992
H	-2.92317	-0.212239	1.60961
N	0.338126	-0.202735	0.917219
C	1.23077	-0.0310702	-0.0930059
O	2.42424	-0.125834	0.130667
N	0.787119	0.248523	-1.36242
C	-0.54326	0.355802	-1.61967
H	1.47312	0.380674	-2.13983
C	-1.46797	0.181734	-0.591451
H	-0.885732	0.576406	-2.6228
H	-2.52875	0.266218	-0.791467
C	8.80025	1.32833	0.0520069
O	9.10228	2.53456	0.0404037
N	9.82232	0.357823	0.366118
C	9.65036	-1.01208	0.420505
H	10.7258	0.774493	0.555033
N	10.7325	-1.78192	0.734698
H	11.6419	-1.40037	0.927537
H	10.5972	-2.77836	0.771257
N	8.48619	-1.60278	0.181071
C	7.48457	-0.726382	-0.121826
C	7.55333	0.670051	-0.202775
N	6.30612	1.20062	-0.540287
C	5.50786	0.153114	-0.659616
N	6.17895	-1.04857	-0.413998
H	4.462	0.18697	-0.914154
H	5.80107	-1.98202	-0.43993
