29
  This energy is 0.00013199 and Call times are: 1654
C	-0.931148	0.674924	-0.411765
N	-2.17968	1.12811	-0.897603
H	-2.94659	0.458902	-1.05706
H	-2.33521	2.12732	-1.0964
N	-0.744195	-0.647201	-0.155005
C	0.445722	-1.10825	0.312291
O	0.589418	-2.29701	0.53497
N	1.48279	-0.23509	0.532519
C	1.32989	1.09292	0.286333
H	2.39821	-0.589024	0.891918
C	0.114046	1.57717	-0.193082
H	2.15179	1.77538	0.462258
H	-0.0125613	2.63421	-0.390689
C	7.25717	0.115568	-1.34301
O	7.85009	0.025553	-2.43236
N	6.32865	1.20337	-1.14368
C	5.59423	1.4429	0.00192655
H	6.24795	1.81354	-1.94789
N	4.76115	2.5237	0.0149316
H	4.65789	3.14828	-0.765452
H	4.23105	2.68992	0.853921
N	5.66678	0.671417	1.07948
C	6.53358	-0.373929	0.941701
C	7.32011	-0.703651	-0.169138
N	8.07335	-1.85092	0.090363
C	7.74996	-2.20283	1.32337
N	6.81249	-1.33298	1.88839
H	8.14303	-3.0515	1.85722
H	6.40525	-1.37895	2.80864
