29
  This energy is -0.00615337 and Call times are: 4356
C	-0.912469	-0.799692	0.141406
N	-1.86349	-1.70938	0.659381
H	-1.87615	-1.92716	1.66627
H	-2.55054	-2.16195	0.0386881
N	-0.0136254	-0.212082	0.975478
C	0.910318	0.665372	0.502996
O	1.70525	1.17914	1.2695
N	0.946638	0.971263	-0.835485
C	0.0627285	0.401892	-1.69694
H	1.65699	1.64604	-1.19952
C	-0.889279	-0.499417	-1.22373
H	0.0972649	0.647742	-2.75078
H	-1.5955	-0.955552	-1.90609
C	7.21953	-1.27552	-0.544831
O	6.78384	-2.16964	-1.01668
N	8.55064	-1.15617	-0.347235
C	9.08967	-0.0304547	0.179811
H	9.15304	-1.90875	-0.643026
N	10.4943	0.115989	0.236291
H	10.963	-0.832243	0.453362
H	10.7556	0.828443	1.00527
N	8.32264	1.00411	0.588083
C	6.99115	0.908481	0.435108
C	6.41763	-0.20934	-0.149407
N	5.09484	0.0141595	-0.26106
C	4.82784	1.23997	0.235874
N	5.9911	1.77909	0.653949
H	3.84771	1.69897	0.30354
H	6.09815	2.694	1.06373
