29
  This energy is -0.00048706 and Call times are: 3434
C	-0.874659	0.710712	-0.47113
N	-1.59742	1.70821	-1.16602
H	-1.09748	2.41436	-1.72533
H	-2.62655	1.73952	-1.12078
N	0.482961	0.684982	-0.542467
C	1.20081	-0.262809	0.11573
O	2.41619	-0.265588	0.0367618
N	0.556412	-1.21453	0.86766
C	-0.799671	-1.2178	0.960501
H	1.10792	-1.94376	1.37412
C	-1.54627	-0.250655	0.289809
H	-1.30087	-1.97111	1.55509
H	-2.62672	-0.249155	0.360723
C	10.8026	0.629136	-1.18748
O	11.3836	0.880822	-2.08803
N	9.57002	1.13936	-0.97412
C	8.83348	0.782249	0.105485
H	9.17949	1.76461	-1.66209
N	7.49512	1.22194	0.219413
H	7.39479	2.2257	-0.165755
H	7.19317	1.20505	1.2566
N	9.31392	-0.0538056	1.05181
C	10.5488	-0.557527	0.888505
C	11.3031	-0.250566	-0.232623
N	12.4408	-0.967964	-0.175676
C	12.4164	-1.71434	0.94823
N	11.2568	-1.46037	1.58821
H	13.2006	-2.38371	1.28413
H	10.962	-1.88302	2.45473
