29
  This energy is -0.00434389 and Call times are: 4246
C	0.429559	-0.562971	-0.995312
N	1.12847	-1.39829	-1.89755
H	1.81565	-2.08011	-1.54496
H	0.958981	-1.33447	-2.9121
N	0.666192	-0.661261	0.340063
C	0.00802637	0.129657	1.22781
O	0.236849	0.0233731	2.41935
N	-0.912523	1.04603	0.781426
C	-1.17318	1.17035	-0.546803
H	-1.41907	1.65463	1.46367
C	-0.504253	0.364552	-1.46649
H	-1.90013	1.8949	-0.891451
H	-0.708489	0.459902	-2.52555
C	4.83173	-1.03825	-0.427498
O	3.97222	-1.55264	-0.88418
N	5.91998	-1.71713	-0.00322794
C	7.00033	-1.07627	0.504416
H	5.93777	-2.71941	-0.112121
N	8.17417	-1.80526	0.801372
H	7.92298	-2.78143	1.18861
H	8.75997	-1.26967	1.53431
N	7.02298	0.264794	0.666837
C	5.94564	0.970581	0.283932
C	4.84835	0.345993	-0.28698
N	3.97478	1.30069	-0.657981
C	4.49701	2.50251	-0.335876
N	5.7008	2.291	0.234034
H	4.02156	3.46464	-0.491264
H	6.3243	3.00932	0.568222
