29
  This energy is -0.000730418 and Call times are: 2095
C	0.492023	-0.141529	-1.10905
N	0.868635	0.00197916	-2.46472
H	0.506101	0.78913	-3.02183
H	1.50637	-0.675593	-2.90779
N	-0.350387	0.762247	-0.54123
C	-0.727574	0.646965	0.75926
O	-1.4832	1.46893	1.2459
N	-0.257304	-0.394056	1.52185
C	0.586266	-1.31521	0.985695
H	-0.547006	-0.483293	2.52212
C	0.979916	-1.20712	-0.346956
H	0.952985	-2.1332	1.59283
H	1.65173	-1.93844	-0.778531
C	5.68324	0.0784583	1.08297
O	5.34093	0.135567	2.12772
N	4.82619	0.218132	0.0480289
C	5.25902	0.206079	-1.23575
H	3.85072	0.379374	0.246058
N	4.35761	0.500375	-2.28378
H	3.38039	0.0970843	-2.0639
H	4.72102	0.073708	-3.20742
N	6.55631	-0.00407418	-1.54913
C	7.43338	-0.177449	-0.546081
C	7.02649	-0.117171	0.777139
N	8.12157	-0.224912	1.55263
C	9.19947	-0.349158	0.750414
N	8.77007	-0.314781	-0.527495
H	10.2254	-0.474135	1.07874
H	9.35782	-0.378061	-1.34418
