30
  This energy is -0.000785405 and Call times are: 4009
C	-0.111544	0.909178	1.03922
N	0.183266	2.00124	0.285196
C	0.445668	1.83626	-1.03419
C	-0.131656	-0.354656	0.412579
C	0.158948	-0.384342	-0.961353
N	0.454752	0.681643	-1.73489
H	0.674322	2.73812	-1.58773
N	-0.37308	1.07941	2.35755
H	-0.341865	2.00937	2.74199
H	-0.594572	0.290689	2.94216
N	-0.392203	-1.64236	0.895075
C	-0.261015	-2.4279	-0.165393
N	0.0720651	-1.71939	-1.3168
H	-0.391507	-3.49736	-0.165776
H	0.225138	-2.08787	-2.24167
C	4.55887	2.03062	1.15581
C	5.25834	0.824588	0.597554
H	4.31309	2.74295	0.359832
H	5.20516	2.56523	1.86143
H	3.63491	1.75269	1.67183
C	6.5158	1.03592	-0.123929
C	4.79272	-0.443592	0.723423
N	5.4635	-1.53719	0.195258
H	3.87053	-0.671269	1.2438
N	7.1211	-0.136233	-0.622282
C	6.66367	-1.44344	-0.505945
H	7.99178	-0.013312	-1.12449
H	5.09684	-2.47126	0.302111
O	7.2547	-2.43211	-0.974046
O	7.05096	2.14754	-0.309587
