30
  This energy is -0.00200031 and Call times are: 1428
C	0.8577	-0.141384	1.07861
N	0.597936	-1.46114	1.27571
C	-0.286233	-2.0849	0.459624
C	0.192405	0.524912	0.0279907
C	-0.698907	-0.24004	-0.742356
N	-0.976635	-1.54982	-0.570536
H	-0.456199	-3.13508	0.660341
N	1.74227	0.477516	1.89705
H	2.18243	-0.0567872	2.62806
H	1.95567	1.45367	1.77665
N	0.236741	1.84757	-0.427496
C	-0.609058	1.87637	-1.44861
N	-1.20422	0.639828	-1.68402
H	-0.83065	2.7445	-2.04695
H	-1.87634	0.407859	-2.39749
C	7.67635	-2.53014	-0.865988
C	7.0794	-1.20236	-0.497098
H	7.89037	-3.12459	0.0296816
H	8.63221	-2.39778	-1.3858
H	7.00505	-3.10364	-1.51229
C	7.86287	-0.316589	0.36776
C	5.86077	-0.779609	-0.918002
N	5.33738	0.453989	-0.558638
H	5.22944	-1.38335	-1.55831
N	7.24602	0.913494	0.676117
C	6.00097	1.36751	0.257463
H	7.77028	1.54158	1.27284
H	4.42816	0.746147	-0.884689
O	5.52027	2.47027	0.571736
O	8.99355	-0.584212	0.822175
