30
  This energy is -0.000843592 and Call times are: 17097
C	0.667838	0.380447	1.15251
N	1.73229	-0.443067	0.960595
C	1.75923	-1.23526	-0.138742
C	-0.367657	0.374691	0.194347
C	-0.213938	-0.494677	-0.898169
N	0.830012	-1.32252	-1.11503
H	2.62923	-1.87112	-0.242791
N	0.645683	1.17033	2.25295
H	1.41767	1.12554	2.89764
H	-0.12834	1.79069	2.42307
N	-1.56954	1.0857	0.100549
C	-2.12527	0.653028	-1.02321
N	-1.34793	-0.304743	-1.66903
H	-3.07091	0.987022	-1.41687
H	-1.55262	-0.781048	-2.53265
C	6.6424	2.29842	1.43953
C	6.20374	1.17883	0.539792
H	7.72222	2.25272	1.62198
H	6.15893	2.22356	2.42037
H	6.40335	3.27471	1.00715
C	6.45562	-0.194407	0.983836
C	5.59033	1.36742	-0.655649
N	5.19742	0.310546	-1.46403
H	5.37392	2.35493	-1.04433
N	6.01986	-1.19781	0.0939019
C	5.39044	-1.02904	-1.13367
H	6.18392	-2.15488	0.381135
H	4.74255	0.47645	-2.34942
O	5.03308	-1.96689	-1.86759
O	7.00935	-0.50413	2.05809
