30
  This energy is -0.000176745 and Call times are: 6375
C	-0.339335	1.19928	0.604649
N	-0.645079	0.651747	1.8108
C	-0.525983	-0.688644	1.97208
C	0.0907626	0.344328	-0.431898
C	0.170003	-1.02531	-0.130495
N	-0.126533	-1.59701	1.05584
H	-0.781995	-1.07215	2.95159
N	-0.46003	2.53959	0.448542
H	-0.772607	3.09257	1.22963
H	-0.241249	2.97478	-0.432166
N	0.471963	0.586233	-1.75667
C	0.773423	-0.611375	-2.24014
N	0.608743	-1.62411	-1.2989
H	1.11042	-0.808722	-3.24426
H	0.771892	-2.61027	-1.42325
C	8.25093	-2.39915	-0.93082
C	7.8156	-1.03199	-0.487203
H	7.55034	-2.81306	-1.66516
H	8.2638	-3.09806	-0.0865781
H	9.24942	-2.37448	-1.37764
C	6.49492	-0.902438	0.133603
C	8.57356	0.0844149	-0.628833
N	8.14164	1.33397	-0.208239
H	9.55847	0.0605727	-1.07879
N	6.14724	0.406387	0.527024
C	6.9057	1.56319	0.39242
H	5.23817	0.51895	0.958692
H	8.72397	2.14989	-0.324518
O	6.53099	2.68866	0.765007
O	5.70201	-1.84708	0.322088
