30
  This energy is -6.4033e-05 and Call times are: 10182
C	1.33137	0.071957	-0.375907
N	1.11483	-0.261492	-1.6759
C	-0.152194	-0.511678	-2.08687
C	0.222399	0.143458	0.493249
C	-1.03621	-0.13989	-0.0623046
N	-1.28159	-0.473243	-1.34716
H	-0.268304	-0.772549	-3.13114
N	2.59968	0.321079	0.0298996
H	3.34618	0.252392	-0.642131
H	2.79237	0.5703	0.985757
N	0.109004	0.451376	1.85383
C	-1.18874	0.355115	2.10974
N	-1.92972	-8.58912e-05	0.985707
H	-1.64664	0.526735	3.06975
H	-2.92606	-0.134872	0.924619
C	10.5751	-0.950683	-2.61248
C	10.828	-0.293062	-1.28621
H	9.50505	-1.13879	-2.75746
H	11.0713	-1.92657	-2.66552
H	10.935	-0.331657	-3.43982
C	10.4006	-1.00294	-0.0780043
C	11.4273	0.916059	-1.14537
N	11.6463	1.4967	0.09549
H	11.7676	1.4945	-1.99546
N	10.6671	-0.331677	1.13322
C	11.2785	0.904959	1.30192
H	10.3799	-0.804628	1.98131
H	12.0943	2.39747	0.174444
O	11.481	1.43646	2.40755
O	9.84012	-2.11755	-0.0688965
