30
  This energy is -0.00531847 and Call times are: 9668
C	-0.927932	-1.02473	-0.0889467
N	-0.823984	-1.40395	1.21238
C	0.0325738	-0.737036	2.02379
C	-0.135817	0.0518264	-0.540558
C	0.709966	0.655224	0.404737
N	0.83426	0.301013	1.70137
H	0.0763302	-1.07962	3.04983
N	-1.78555	-1.69455	-0.895906
H	-2.32176	-2.4541	-0.509685
H	-1.88499	-1.43769	-1.86391
N	-0.0109344	0.671928	-1.78905
C	0.889745	1.62645	-1.59788
N	1.36018	1.66207	-0.28788
H	1.23756	2.31205	-2.35268
H	2.04279	2.29161	0.102401
C	5.62386	-2.69954	-0.151316
C	5.29329	-1.25696	0.103837
H	6.3422	-2.79617	-0.973537
H	4.73013	-3.25755	-0.453411
H	6.0471	-3.17528	0.738508
C	4.71577	-0.482288	-0.997414
C	5.49889	-0.634174	1.29161
N	5.18248	0.701274	1.49486
H	5.92199	-1.14666	2.14683
N	4.42881	0.864301	-0.692392
C	4.63038	1.52304	0.51467
H	4.02868	1.4185	-1.4395
H	5.34479	1.14229	2.3879
O	4.35127	2.71875	0.710345
O	4.47702	-0.933669	-2.13575
