30
  This energy is -0.000713208 and Call times are: 8345
C	0.499052	0.938319	-0.888558
N	1.5726	1.27704	-0.126435
C	1.7498	0.661546	1.06798
C	-0.388353	-0.043973	-0.400729
C	-0.0873574	-0.602198	0.852589
N	0.969439	-0.286337	1.63079
H	2.61999	0.968499	1.63417
N	0.326408	1.55645	-2.08165
H	0.997534	2.24906	-2.37056
H	-0.458419	1.32758	-2.66865
N	-1.55795	-0.603464	-0.927878
C	-1.95064	-1.47819	-0.0116227
N	-1.09734	-1.51916	1.08786
H	-2.82703	-2.10078	-0.0829555
H	-1.18033	-2.09776	1.90818
C	5.54661	-2.75845	0.250237
C	5.71825	-1.26711	0.293471
H	6.47836	-3.2503	-0.0519637
H	4.7912	-3.04336	-0.491091
H	5.24448	-3.15369	1.22479
C	6.12219	-0.588875	-0.94072
C	5.52118	-0.516633	1.40652
N	5.68856	0.860605	1.41323
H	5.22215	-0.952818	2.35171
N	6.26559	0.809839	-0.832468
C	6.06957	1.59876	0.294808
H	6.54422	1.29913	-1.67412
H	5.53589	1.39721	2.25412
O	6.21581	2.83331	0.314586
O	6.3348	-1.16025	-2.02925
