30
  This energy is -0.0014405 and Call times are: 15884
C	-0.330039	-1.34418	-0.0572215
N	-1.55226	-1.15135	-0.620313
C	-1.95873	0.113311	-0.88912
C	0.466089	-0.214006	0.224274
C	-0.0757798	1.03946	-0.104699
N	-1.28428	1.26155	-0.663606
H	-2.93956	0.210135	-1.33706
N	0.0716231	-2.61023	0.209514
H	-0.545803	-3.37265	-0.0165443
H	0.970852	-2.78564	0.626078
N	1.73956	-0.0743509	0.787849
C	1.95768	1.23379	0.797154
N	0.891616	1.95665	0.268332
H	2.8499	1.71183	1.16618
H	0.817645	2.95609	0.167165
C	8.46425	0.487475	-2.33511
C	7.53112	0.280186	-1.17678
H	8.97372	-0.446633	-2.59832
H	9.25	1.20771	-2.07966
H	7.93008	0.853242	-3.21723
C	8.10051	-0.208867	0.0814018
C	6.19663	0.519284	-1.23046
N	5.36121	0.31715	-0.141387
H	5.71039	0.881378	-2.12797
N	7.17168	-0.381986	1.1283
C	5.80274	-0.144137	1.09682
H	7.54384	-0.719338	2.00756
H	4.37133	0.50235	-0.206042
O	5.04297	-0.320773	2.06505
O	9.30763	-0.466724	0.262922
