30
  This energy is 8.8409e-05 and Call times are: 10710
C	0.226423	1.24286	-0.568385
N	1.46635	0.943806	-1.03871
C	1.97192	-0.293721	-0.815627
C	-0.483749	0.247204	0.134954
C	0.156649	-0.99259	0.29565
N	1.38511	-1.31807	-0.159469
H	2.96247	-0.478799	-1.21138
N	-0.274432	2.48125	-0.794005
H	0.285189	3.14527	-1.30341
H	-1.1893	2.73306	-0.458566
N	-1.74924	0.235942	0.732672
C	-1.86629	-0.983393	1.24101
N	-0.741711	-1.77004	1.00611
H	-2.72339	-1.35171	1.77997
H	-0.589981	-2.72453	1.2899
C	15.4619	-2.64558	0.3645
C	16.0601	-1.27154	0.266517
H	15.3052	-3.07536	-0.631564
H	14.4773	-2.60961	0.844863
H	16.1045	-3.32053	0.937795
C	15.3131	-0.251374	-0.47359
C	17.248	-0.924126	0.822399
N	17.7735	0.355241	0.713252
H	17.8515	-1.62797	1.38229
N	15.9292	1.01598	-0.52795
C	17.1432	1.39467	0.0326478
H	15.4299	1.73659	-1.03474
H	18.6595	0.589447	1.13576
O	17.6254	2.53717	-0.0573438
O	14.2127	-0.439855	-1.03047
