30
  This energy is 0.000503425 and Call times are: 8029
C	-0.87975	1.06021	-0.144987
N	-0.589327	1.63153	1.0539
C	0.331115	1.04259	1.85563
C	-0.207147	-0.126729	-0.504347
C	0.723126	-0.631257	0.419268
N	1.03185	-0.0867389	1.61525
H	0.524427	1.53865	2.79829
N	-1.80052	1.6528	-0.942722
H	-2.24386	2.49929	-0.625729
H	-2.03721	1.25421	-1.83604
N	-0.27603	-0.942983	-1.63918
C	0.593459	-1.91603	-1.40243
N	1.22741	-1.77759	-0.170521
H	0.806111	-2.7346	-2.06988
H	1.92284	-2.38392	0.233635
C	6.25516	1.17937	2.42347
C	6.00573	0.450376	1.13437
H	5.44386	0.998341	3.13791
H	6.28785	2.26264	2.2596
H	7.19866	0.867954	2.88181
C	4.7769	0.760838	0.399537
C	6.85087	-0.475349	0.615043
N	6.59081	-1.13171	-0.579277
H	7.77582	-0.752637	1.10562
N	4.60318	0.042444	-0.801468
C	5.45353	-0.908809	-1.35246
H	3.7601	0.24155	-1.32586
H	7.23521	-1.81665	-0.945286
O	5.23281	-1.50408	-2.42149
O	3.91903	1.58915	0.76632
