44
  This energy is -4.4172 and Call times are: 4468
C	0.355682	2.34669	-2.54543
C	0.880954	1.59402	-1.38409
O	2.07023	1.61933	-1.09878
H	1.19499	2.86717	-3.05587
H	-0.38429	3.10278	-2.20851
H	-0.127182	1.65221	-3.26489
N	-0.0101801	0.893773	-0.678458
C	0.356428	0.0776913	0.452103
C	-0.64335	-1.0583	0.559454
O	-1.65785	-1.07213	-0.135032
H	-0.968129	0.850168	-0.947343
H	1.32877	-0.36417	0.273391
C	0.370932	0.910931	1.75239
H	-0.629191	1.35583	1.94176
H	0.665266	0.296882	2.62808
H	1.10347	1.74093	1.64825
N	-0.373524	-2.04825	1.43307
C	-1.26422	-3.17302	1.59963
H	0.454488	-2.0215	1.9833
H	-0.868023	-3.87879	2.36261
H	-1.38311	-3.72544	0.639435
H	-2.27226	-2.83085	1.92815
C	4.1438	3.02532	1.59047
C	4.78064	2.22796	0.518181
O	5.30276	2.76813	-0.447228
H	4.22055	4.10564	1.33974
H	4.65659	2.84371	2.55836
H	3.07123	2.75342	1.68391
N	4.74853	0.901522	0.666218
C	5.28839	-0.00695649	-0.314484
C	4.51159	-1.30752	-0.23264
O	3.7097	-1.50589	0.678032
H	4.2839	0.475252	1.43711
H	5.13035	0.40138	-1.30489
C	6.79187	-0.25767	-0.0656304
H	6.95357	-0.686419	0.946335
H	7.22244	-0.944842	-0.822552
H	7.33935	0.70845	-0.122339
N	4.72715	-2.22618	-1.19472
C	4.02959	-3.4909	-1.20214
H	5.37691	-2.04581	-1.92571
H	4.34333	-4.10797	-2.07279
H	2.9286	-3.33186	-1.26389
H	4.24398	-4.06351	-0.270849
