44
  This energy is -3.1 and Call times are: 4309
C	-0.54188	-2.28067	2.57247
C	0.0233716	-1.0167	2.04901
O	0.487078	-0.171103	2.80158
H	-0.475751	-2.28079	3.6822
H	0.0291608	-3.14745	2.17833
H	-1.60786	-2.3749	2.27599
N	-0.00574084	-0.857507	0.723801
C	0.46788	0.337093	0.0702164
C	-0.308464	0.508815	-1.22182
O	-1.05319	-0.379418	-1.63188
H	-0.423611	-1.53683	0.127339
H	0.250573	1.19545	0.693624
C	1.98271	0.245521	-0.216378
H	2.20491	-0.628844	-0.864568
H	2.3622	1.16517	-0.70706
H	2.53017	0.112163	0.74219
N	-0.1574	1.66772	-1.89275
C	-0.860047	1.92278	-3.12864
H	0.44655	2.37621	-1.54296
H	-0.603882	2.92957	-3.52609
H	-1.96198	1.87845	-2.97033
H	-0.590935	1.16308	-3.89778
C	6.02767	-0.118246	-3.47758
C	5.52212	-0.530471	-2.1488
O	4.47889	-1.15918	-2.0356
H	5.31509	-0.454049	-4.26201
H	7.0185	-0.580658	-3.67037
H	6.12026	0.987279	-3.52567
N	6.26311	-0.176835	-1.09607
C	5.87915	-0.46878	0.262571
C	6.46973	0.601288	1.16132
O	7.2764	1.41834	0.721519
H	7.08866	0.370218	-1.20124
H	4.80172	-0.405512	0.35074
C	6.3761	-1.86787	0.687801
H	7.48233	-1.92991	0.607578
H	6.07476	-2.1101	1.72753
H	5.9378	-2.63415	0.0117383
N	6.07194	0.626106	2.44862
C	6.57592	1.61147	3.37665
H	5.41529	-0.0408007	2.78497
H	6.12949	1.46652	4.38507
H	6.32938	2.64083	3.0289
H	7.68347	1.53426	3.4689
