44
  This energy is 0 and Call times are: 8880
C	-2.48071	-2.29603	0.828851
C	-1.36056	-1.39945	1.19293
O	-1.11212	-1.13959	2.36218
H	-3.00075	-2.62821	1.75357
H	-2.09722	-3.18888	0.29174
H	-3.20602	-1.75895	0.181877
N	-0.649519	-0.897034	0.180816
C	0.442886	0.0235242	0.375197
C	0.546026	0.90212	-0.857275
O	-0.116324	0.655903	-1.86345
H	-0.889395	-1.08525	-0.767288
H	0.219971	0.670263	1.21464
C	1.7675	-0.7344	0.612263
H	2.00202	-1.39008	-0.253252
H	2.61387	-0.0365421	0.777086
H	1.66639	-1.37683	1.51416
N	1.37935	1.9598	-0.803218
C	1.53855	2.85482	-1.92562
H	1.90385	2.14509	0.021182
H	2.26626	3.66106	-1.68555
H	0.565766	3.32846	-2.19136
H	1.90913	2.30245	-2.81932
C	302.845	-0.421881	-2.70051
C	303.949	-0.884235	-1.82952
O	304.37	-2.031	-1.89569
H	302.508	-1.26341	-3.34384
H	303.192	0.409722	-3.34921
H	301.99	-0.0763401	-2.08285
N	304.449	0.0139964	-0.977586
C	305.496	-0.299619	-0.0374587
C	305.337	0.607537	1.16804
O	304.535	1.53939	1.15332
H	304.069	0.931689	-0.906846
H	305.373	-1.31877	0.307273
C	306.888	-0.108873	-0.678331
H	307.019	0.939182	-1.02266
H	307.703	-0.360561	0.0313142
H	306.98	-0.776394	-1.56286
N	306.097	0.348528	2.25034
C	306.01	1.15469	3.44561
H	306.737	-0.41247	2.24474
H	306.713	0.782637	4.22302
H	304.978	1.12629	3.86417
H	306.263	2.21651	3.22288
