44
  This energy is 0 and Call times are: 8348
C	2.07148	-2.79634	-0.0460996
C	1.85992	-1.33143	-0.0260287
O	2.78719	-0.560726	0.18037
H	3.14068	-3.01595	0.164764
H	1.81025	-3.2071	-1.04399
H	1.44461	-3.28419	0.72987
N	0.611935	-0.909046	-0.241681
C	0.242658	0.484221	-0.210049
C	-1.21071	0.578799	0.214591
O	-1.90736	-0.430273	0.304997
H	-0.139756	-1.55013	-0.367548
H	0.832298	0.993069	0.5423
C	0.44647	1.14051	-1.59315
H	-0.166326	0.625496	-2.3634
H	0.178699	2.2169	-1.57827
H	1.51518	1.05254	-1.88722
N	-1.70191	1.80199	0.494874
C	-3.07201	1.98897	0.912071
H	-1.12162	2.60618	0.419894
H	-3.28386	3.06542	1.09537
H	-3.2767	1.42654	1.85177
H	-3.77477	1.62139	0.129675
C	263.764	1.26961	0.16215
C	264.861	0.587294	-0.559572
O	264.664	0.0294189	-1.63024
H	262.819	1.15699	-0.413894
H	263.991	2.35083	0.27115
H	263.627	0.817585	1.16724
N	266.062	0.615755	0.0228234
C	267.217	-0.0403321	-0.537227
C	268.141	-0.426455	0.60267
O	267.93	-0.0290414	1.74681
H	266.198	1.03859	0.914217
H	266.907	-0.955889	-1.02496
C	267.947	0.884615	-1.53584
H	268.275	1.81946	-1.03343
H	268.831	0.385826	-1.9844
H	267.25	1.16079	-2.35695
N	269.189	-1.22299	0.315543
C	270.119	-1.64671	1.33676
H	269.342	-1.5377	-0.615505
H	270.91	-2.29662	0.902915
H	269.592	-2.22029	2.13359
H	270.609	-0.766296	1.81183
