44
  This energy is 0 and Call times are: 6892
C	-1.01725	2.63867	2.02862
C	-0.86158	1.99912	0.702769
O	-1.4084	2.4592	-0.290066
H	-1.68504	3.52241	1.93398
H	-0.0298692	2.97357	2.41027
H	-1.46806	1.92303	2.74814
N	-0.100268	0.90331	0.658192
C	0.1098	0.147081	-0.551167
C	0.367302	-1.29775	-0.166821
O	0.533721	-1.61661	1.00891
H	0.304876	0.51752	1.48214
H	-0.794767	0.166287	-1.14616
C	1.29978	0.713527	-1.35636
H	2.23017	0.68429	-0.750097
H	1.46301	0.14827	-2.29676
H	1.09307	1.7738	-1.61989
N	0.397724	-2.21209	-1.15631
C	0.630744	-3.61155	-0.885415
H	0.256789	-1.93543	-2.10112
H	0.618321	-4.20195	-1.82802
H	-0.155355	-4.01665	-0.207759
H	1.61948	-3.7573	-0.393168
C	160.024	1.10782	-1.4248
C	161.177	0.181033	-1.37003
O	161.2	-0.841375	-2.04128
H	159.259	0.70133	-2.12124
H	160.351	2.1037	-1.79127
H	159.571	1.21543	-0.416556
N	162.176	0.523584	-0.552676
C	163.344	-0.298432	-0.360378
C	163.878	-0.0426165	1.03657
O	163.425	0.868368	1.72679
H	162.124	1.33812	0.0180911
H	163.059	-1.34192	-0.410749
C	164.423	0.0200569	-1.41875
H	164.723	1.08797	-1.36048
H	165.323	-0.616142	-1.28983
H	164.008	-0.166625	-2.43333
N	164.855	-0.852309	1.49083
C	165.42	-0.688209	2.8097
H	165.206	-1.58655	0.91917
H	166.209	-1.44999	2.99703
H	164.634	-0.798672	3.59091
H	165.876	0.322545	2.91903
