44
  This energy is 0 and Call times are: 8796
C	-0.266737	1.91443	-2.89422
C	0.200835	0.714963	-2.1636
O	0.666939	-0.246905	-2.75855
H	-0.132365	1.75493	-3.98618
H	0.321796	2.80397	-2.58586
H	-1.34288	2.09345	-2.68694
N	0.0820678	0.746065	-0.834201
C	0.453765	-0.362613	0.00914642
C	-0.408448	-0.317826	1.2566
O	-1.1314	0.649364	1.48809
H	-0.337084	1.51952	-0.367355
H	0.232408	-1.2908	-0.502815
C	1.95072	-0.2939	0.382829
H	2.17623	0.653423	0.917394
H	2.25246	-1.14978	1.02076
H	2.56228	-0.320061	-0.54543
N	-0.357558	-1.37546	2.09017
C	-1.14704	-1.42408	3.2987
H	0.230401	-2.15056	1.88376
H	-0.966858	-2.37425	3.84818
H	-2.23348	-1.35724	3.06109
H	-0.887992	-0.575002	3.97183
C	300.811	2.97144	-0.0596179
C	299.796	2.05256	-0.621739
O	299.039	2.41383	-1.51237
H	300.728	3.96087	-0.559579
H	301.83	2.56658	-0.231391
H	300.645	3.10446	1.03027
N	299.756	0.823218	-0.102594
C	298.794	-0.168341	-0.516601
C	298.541	-1.09904	0.654309
O	299.233	-1.03779	1.66885
H	300.351	0.556821	0.650186
H	297.856	0.319312	-0.750174
C	299.311	-0.961696	-1.73687
H	300.268	-1.47076	-1.49446
H	298.574	-1.71903	-2.07383
H	299.497	-0.259769	-2.57884
N	297.53	-1.98292	0.54285
C	297.21	-2.9046	1.60812
H	296.978	-2.01464	-0.284293
H	296.348	-3.54842	1.32602
H	296.946	-2.35259	2.53899
H	298.081	-3.56253	1.83263
