44
  This energy is 0 and Call times are: 5268
C	3.02145	-0.113571	-1.72354
C	1.56694	0.153705	-1.65944
O	0.988849	0.731668	-2.56948
H	3.42957	0.300549	-2.67108
H	3.21107	-1.20726	-1.69823
H	3.53762	0.370772	-0.867929
N	0.934107	-0.266815	-0.561687
C	-0.471925	-0.0414327	-0.33622
C	-0.70558	0.0285429	1.16113
O	0.189849	-0.260785	1.95247
H	1.42577	-0.699364	0.188673
H	-0.750849	0.918994	-0.751447
C	-1.31919	-1.16965	-0.964318
H	-1.04075	-2.15392	-0.531044
H	-2.40449	-1.00035	-0.809473
H	-1.12629	-1.20763	-2.05871
N	-1.92116	0.425445	1.58641
C	-2.23379	0.527426	2.99284
H	-2.63158	0.659325	0.930917
H	-3.2819	0.870025	3.13888
H	-1.55443	1.25409	3.49454
H	-2.11433	-0.460023	3.49465
C	50.1717	0.0372272	-1.43234
C	48.8437	-0.58202	-1.22264
O	48.4667	-1.5199	-1.91159
H	50.6853	-0.472222	-2.27643
H	50.7921	-0.0686521	-0.517629
H	50.0573	1.11396	-1.67855
N	48.0922	-0.0598057	-0.250544
C	46.7606	-0.527476	0.0437373
C	45.9699	0.630352	0.623309
O	46.5258	1.68561	0.921949
H	48.3962	0.72994	0.274582
H	46.2735	-0.821543	-0.877616
C	46.7979	-1.70901	1.03763
H	47.2881	-1.40483	1.98697
H	45.7793	-2.0871	1.26153
H	47.3881	-2.54151	0.596098
N	44.6433	0.460961	0.78866
C	43.8089	1.50924	1.32811
H	44.2109	-0.39868	0.53733
H	42.7487	1.17752	1.38583
H	43.857	2.41888	0.686609
H	44.1446	1.79096	2.35235
