44
  This energy is 0 and Call times are: 11344
C	-3.33828	0.822801	0.539969
C	-2.17325	0.621775	-0.350783
O	-2.30317	0.596386	-1.56688
H	-4.25944	0.91568	-0.0754346
H	-3.20896	1.7508	1.13565
H	-3.44991	-0.0436568	1.22545
N	-0.988918	0.46966	0.246371
C	0.228576	0.222905	-0.485325
C	1.1645	-0.569936	0.407423
O	0.900506	-0.749738	1.59473
H	-0.905136	0.45178	1.23861
H	0.00801715	-0.39239	-1.34869
C	0.889354	1.54937	-0.9202
H	1.12543	2.17642	-0.0341363
H	1.82054	1.37246	-1.4965
H	0.183778	2.11647	-1.56588
N	2.28372	-1.07271	-0.149881
C	3.23058	-1.84485	0.620471
H	2.47803	-0.920107	-1.11322
H	4.0834	-2.16932	-0.0156407
H	2.74416	-2.7531	1.04443
H	3.63333	-1.24217	1.46647
C	484.205	0.325607	1.31803
C	483.261	-0.183999	0.298155
O	483.663	-0.689599	-0.740501
H	485.247	0.179799	0.959315
H	484.072	-0.226838	2.27199
H	484.033	1.40883	1.49148
N	481.961	-0.057529	0.576613
C	480.923	-0.467289	-0.336481
C	479.705	0.402189	-0.0888576
O	479.66	1.16285	0.876053
H	481.649	0.39329	1.4079
H	481.249	-0.284239	-1.35285
C	480.573	-1.95864	-0.140304
H	480.229	-2.14499	0.899308
H	479.785	-2.28981	-0.847114
H	481.481	-2.57534	-0.318699
N	478.686	0.314906	-0.966121
C	477.488	1.10792	-0.814714
H	478.742	-0.303373	-1.74303
H	476.768	0.894165	-1.63553
H	477.731	2.19494	-0.836216
H	476.989	0.884982	0.156126
