44
  This energy is 0 and Call times are: 6136
C	-0.571821	2.98513	1.6955
C	-0.814125	2.06198	0.564028
O	-1.73472	2.24899	-0.219519
H	-1.34132	3.78742	1.68621
H	0.432468	3.44932	1.60237
H	-0.637055	2.43577	2.65833
N	0.0206942	1.02593	0.454172
C	-0.114243	0.0194725	-0.569248
C	0.45389	-1.28057	-0.0319575
O	1.06884	-1.30687	1.0324
H	0.740211	0.864422	1.12356
H	-1.1652	-0.146601	-0.770592
C	0.624131	0.441192	-1.85851
H	1.70432	0.601462	-1.65472
H	0.51605	-0.319313	-2.65881
H	0.197393	1.39865	-2.22935
N	0.252177	-2.3982	-0.757384
C	0.751227	-3.68195	-0.322522
H	-0.251383	-2.35759	-1.61403
H	0.483255	-4.47624	-1.05363
H	0.319454	-3.95647	0.667169
H	1.86039	-3.65853	-0.220763
C	107.314	-2.986	-0.595556
C	107.412	-1.64608	0.0259405
O	106.443	-1.12404	0.560163
H	106.273	-3.36195	-0.496292
H	108.002	-3.69441	-0.0877049
H	107.574	-2.92763	-1.6736
N	108.605	-1.04971	-0.0336434
C	108.844	0.272741	0.488498
C	109.966	0.90298	-0.315009
O	110.613	0.23823	-1.12184
H	109.373	-1.46981	-0.507821
H	107.96	0.880454	0.340019
C	109.216	0.215549	1.98622
H	110.129	-0.399127	2.13791
H	109.389	1.22876	2.40339
H	108.384	-0.256358	2.55354
N	110.217	2.21201	-0.117326
C	111.262	2.8985	-0.840779
H	109.68	2.73417	0.536836
H	111.312	3.96787	-0.538823
H	111.075	2.8526	-1.93819
H	112.253	2.43027	-0.639271
