44
  This energy is 0 and Call times are: 5016
C	-3.37488	-0.744905	-0.409896
C	-2.03227	-0.4398	-0.953473
O	-1.78544	-0.575762	-2.14385
H	-4.03098	-1.10456	-1.23212
H	-3.82401	0.167739	0.0351876
H	-3.30303	-1.53694	0.36509
N	-1.11944	-0.015305	-0.0765993
C	0.24204	0.279812	-0.447879
C	1.12566	0.0344108	0.760652
O	0.634104	-0.191264	1.86481
H	-1.32375	0.0512047	0.895872
H	0.557799	-0.407117	-1.22316
C	0.378013	1.74061	-0.930392
H	0.0641813	2.44604	-0.131692
H	1.41912	1.97612	-1.2323
H	-0.283094	1.89956	-1.81018
N	2.4602	0.0648306	0.575994
C	3.37956	-0.162703	1.66649
H	2.83909	0.244976	-0.325707
H	4.43233	-0.0967649	1.31356
H	3.22109	-1.17255	2.10963
H	3.23096	0.594223	2.47031
C	27.1492	-2.82108	0.853624
C	27.259	-1.45355	0.297776
O	26.3283	-0.939556	-0.307213
H	26.1483	-3.23809	0.608065
H	27.2672	-2.79617	1.95734
H	27.9296	-3.47691	0.41333
N	28.4208	-0.825297	0.492535
C	28.6926	0.492215	-0.0259634
C	30.1865	0.608136	-0.263443
O	30.9567	-0.264574	0.132573
H	29.1833	-1.27231	0.951378
H	28.2036	0.606403	-0.985396
C	28.2146	1.58196	0.95855
H	28.7238	1.47168	1.9397
H	28.4058	2.60111	0.564456
H	27.1204	1.47303	1.12366
N	30.6316	1.69272	-0.927886
C	32.036	1.88576	-1.20489
H	29.9926	2.38612	-1.24404
H	32.2004	2.83547	-1.7601
H	32.4339	1.04662	-1.82034
H	32.6214	1.92715	-0.25791
