44
  This energy is 0 and Call times are: 6500
C	1.93033	-1.40124	-2.53437
C	1.69211	-1.0633	-1.11304
O	2.39159	-1.53131	-0.22529
H	2.78144	-2.11294	-2.60501
H	2.17973	-0.484594	-3.10908
H	1.02699	-1.87686	-2.97123
N	0.67962	-0.229833	-0.862863
C	0.29882	0.157542	0.472611
C	-1.18594	0.469068	0.469487
O	-1.81426	0.53082	-0.585554
H	0.0936073	0.11056	-1.59265
H	0.451678	-0.678046	1.14422
C	1.10876	1.38557	0.942928
H	0.944032	2.24625	0.260198
H	0.834511	1.68515	1.97519
H	2.19254	1.13739	0.929685
N	-1.78612	0.665489	1.65996
C	-3.19653	0.961721	1.75567
H	-1.26185	0.607351	2.50307
H	-3.50044	1.08895	2.81806
H	-3.80191	0.137099	1.31433
H	-3.4392	1.90019	1.20656
C	132.605	-2.36588	0.883833
C	132.998	-1.06892	0.288276
O	132.203	-0.404488	-0.362351
H	131.548	-2.58605	0.619837
H	132.698	-2.32314	1.9894
H	133.251	-3.17903	0.489983
N	134.256	-0.675507	0.499913
C	134.797	0.541889	-0.0515437
C	136.29	0.351542	-0.24466
O	136.861	-0.640481	0.203558
H	134.903	-1.24664	0.997017
H	134.365	0.71408	-1.0293
C	134.52	1.7409	0.881759
H	134.973	1.56937	1.88173
H	134.92	2.68664	0.46155
H	133.423	1.85645	1.01516
N	136.958	1.30103	-0.928902
C	138.379	1.20242	-1.16684
H	136.477	2.0945	-1.2874
H	138.742	2.07933	-1.74663
H	138.618	0.278616	-1.74205
H	138.937	1.16312	-0.203415
