44
  This energy is 0 and Call times are: 11820
C	-3.39306	-0.302523	-0.712966
C	-2.08892	-0.877858	-0.313773
O	-2.00655	-2.01859	0.120225
H	-4.19539	-1.05032	-0.531484
H	-3.38213	-0.0419114	-1.79218
H	-3.60866	0.608108	-0.115172
N	-1.02337	-0.0855337	-0.452364
C	0.305646	-0.489549	-0.0663048
C	1.08489	0.753876	0.318699
O	0.622532	1.8749	0.115627
H	-1.1119	0.854711	-0.768542
H	0.246492	-1.11839	0.813293
C	1.01209	-1.23596	-1.21914
H	1.08244	-0.587568	-2.11841
H	2.03128	-1.56442	-0.929509
H	0.420363	-2.13766	-1.48959
N	2.29076	0.582506	0.895359
C	3.1016	1.70707	1.30042
H	2.64622	-0.33246	1.05523
H	4.0561	1.36045	1.75431
H	2.56263	2.32993	2.05065
H	3.34337	2.35277	0.42535
C	514.461	-1.29619	3.1847
C	515.03	-1.38426	1.82089
O	515.839	-2.2538	1.52724
H	514.9	-2.09726	3.81818
H	513.359	-1.4294	3.14927
H	514.7	-0.309963	3.63583
N	514.613	-0.467751	0.94395
C	515.109	-0.398745	-0.408119
C	515.025	1.04395	-0.869747
O	514.441	1.88862	-0.193087
H	513.986	0.258609	1.20918
H	516.155	-0.680678	-0.420138
C	514.29	-1.31527	-1.34337
H	513.219	-1.01977	-1.3395
H	514.671	-1.28153	-2.38474
H	514.36	-2.36452	-0.982018
N	515.617	1.36246	-2.03744
C	515.594	2.7111	-2.55396
H	516.088	0.666017	-2.56884
H	516.135	2.77031	-3.52394
H	516.078	3.41427	-1.83862
H	514.545	3.05163	-2.71576
