44
  This energy is 0 and Call times are: 6416
C	0.201448	-1.62392	3.07164
C	0.5192	-0.491456	2.17292
O	1.02404	0.53615	2.6037
H	0.476081	-1.35352	4.1144
H	0.776741	-2.52453	2.77053
H	-0.885123	-1.84971	3.03326
N	0.222931	-0.657301	0.881758
C	0.434013	0.371247	-0.106217
C	-0.586687	0.181166	-1.21238
O	-1.29644	-0.82215	-1.2488
H	-0.225361	-1.48359	0.552897
H	0.248301	1.33977	0.341115
C	1.86817	0.303581	-0.675312
H	2.05567	-0.686118	-1.14369
H	2.04754	1.09927	-1.42713
H	2.59823	0.437138	0.152646
N	-0.689927	1.15182	-2.14147
C	-1.63696	1.06035	-3.22818
H	-0.109809	1.95815	-2.09287
H	-1.5696	1.95555	-3.88491
H	-2.67785	0.990025	-2.83721
H	-1.43879	0.155474	-3.84712
C	127.141	-0.936839	-2.78914
C	127.445	-1.00671	-1.34212
O	126.682	-1.55843	-0.560975
H	126.162	-1.42702	-2.98289
H	127.927	-1.46188	-3.37117
H	127.084	0.12242	-3.1174
N	128.586	-0.436486	-0.947158
C	128.996	-0.386204	0.433943
C	129.858	0.847796	0.626731
O	130.231	1.51224	-0.338069
H	129.176	0.0445182	-1.58885
H	128.122	-0.270893	1.06253
C	129.779	-1.65918	0.823415
H	130.682	-1.7723	0.185836
H	130.089	-1.63873	1.88839
H	129.133	-2.55007	0.666858
N	130.188	1.18918	1.88791
C	130.999	2.35052	2.1689
H	129.873	0.641414	2.6559
H	131.16	2.46245	3.26385
H	130.506	3.27518	1.79074
H	131.994	2.26351	1.67542
