44
  This energy is 0 and Call times are: 11260
C	0.447367	0.742714	-3.3706
C	0.934272	0.680203	-1.97412
O	2.11617	0.849123	-1.70769
H	1.30535	0.936737	-4.05038
H	-0.291959	1.56356	-3.48174
H	-0.0252842	-0.221157	-3.65458
N	0.0174453	0.42932	-1.03664
C	0.345782	0.296119	0.360864
C	-0.669646	-0.633123	0.998807
O	-1.66637	-0.998127	0.378307
H	-0.933852	0.253499	-1.27325
H	1.31708	-0.172999	0.456477
C	0.337211	1.67162	1.06312
H	-0.662088	2.14866	0.974406
H	0.602109	1.58406	2.13676
H	1.08183	2.33759	0.574893
N	-0.433604	-1.04634	2.25959
C	-1.34136	-1.93573	2.94599
H	0.380502	-0.743451	2.7439
H	-0.972863	-2.15908	3.97144
H	-1.44242	-2.89746	2.39269
H	-2.35329	-1.47719	3.02895
C	472.111	1.93254	0.178852
C	473.109	1.02189	0.783337
O	473.133	0.82017	1.98963
H	471.471	2.36034	0.98086
H	471.468	1.37605	-0.535325
H	472.623	2.762	-0.353461
N	473.971	0.444177	-0.0568782
C	475.026	-0.432336	0.38714
C	476.171	-0.334121	-0.603471
O	476.036	0.273206	-1.66394
H	473.965	0.650035	-1.03127
H	475.397	-0.0880896	1.34436
C	474.525	-1.88938	0.492842
H	474.154	-2.24656	-0.491348
H	475.325	-2.57188	0.847123
H	473.682	-1.93609	1.21688
N	477.335	-0.926895	-0.274028
C	478.482	-0.88131	-1.15168
H	477.427	-1.41019	0.590356
H	479.342	-1.42587	-0.703707
H	478.792	0.172345	-1.33761
H	478.243	-1.34943	-2.13413
