44
  This energy is 0 and Call times are: 7732
C	-1.91761	2.90398	0.0485043
C	-1.03419	1.93701	-0.641188
O	-0.87244	1.98009	-1.85296
H	-2.36721	3.59043	-0.701516
H	-1.33357	3.50249	0.778857
H	-2.73259	2.36725	0.578438
N	-0.435033	1.02626	0.129483
C	0.419175	-0.00633003	-0.402152
C	0.345797	-1.20481	0.525109
O	-0.22537	-1.12681	1.61111
H	-0.608674	0.978361	1.10898
H	0.0410938	-0.321206	-1.3668
C	1.87534	0.492705	-0.527827
H	2.26723	0.805967	0.463295
H	2.54034	-0.288861	-0.949072
H	1.90395	1.37462	-1.2044
N	0.919455	-2.35177	0.111072
C	0.894948	-3.54553	0.923797
H	1.3734	-2.39651	-0.772672
H	1.4186	-4.38174	0.410219
H	-0.154113	-3.86099	1.12684
H	1.39676	-3.36542	1.902
C	225.066	0.653027	-2.72353
C	224.735	0.755997	-1.28437
O	225.554	1.16892	-0.474708
H	226.116	0.980486	-2.88339
H	224.392	1.30436	-3.31864
H	224.961	-0.398074	-3.06599
N	223.507	0.373637	-0.928963
C	223.053	0.37597	0.439635
C	221.999	-0.704483	0.590541
O	221.552	-1.28969	-0.39386
H	222.865	0.00118842	-1.59352
H	223.879	0.114253	1.0898
C	222.475	1.75466	0.826892
H	221.621	2.01891	0.166939
H	222.135	1.77343	1.88268
H	223.261	2.53085	0.701252
N	221.582	-1.00119	1.83708
C	220.586	-2.0189	2.07858
H	221.959	-0.519624	2.62144
H	220.377	-2.11482	3.16698
H	220.934	-3.00714	1.70003
H	219.633	-1.76698	1.55977
