44
  This energy is 0 and Call times are: 10476
C	3.20805	0.518157	1.24604
C	2.02319	0.956185	0.474429
O	1.90907	2.11244	0.09173
H	3.8871	1.38482	1.39989
H	3.75502	-0.272901	0.691246
H	2.89586	0.125911	2.23689
N	1.0986	0.0253533	0.227332
C	-0.12837	0.310297	-0.474037
C	-1.18812	-0.659605	0.0135907
O	-0.889994	-1.60425	0.741929
H	1.18634	-0.901654	0.580638
H	-0.462377	1.30821	-0.218614
C	0.0653016	0.178168	-2.00056
H	0.397807	-0.848474	-2.26416
H	-0.868882	0.408641	-2.55256
H	0.850609	0.891254	-2.33395
N	-2.46054	-0.441733	-0.373051
C	-3.53691	-1.30893	0.0459865
H	-2.68277	0.330333	-0.959226
H	-4.50673	-0.963773	-0.375359
H	-3.62183	-1.32095	1.1568
H	-3.35683	-2.35321	-0.297804
C	417.183	-1.01783	2.78848
C	418.428	-0.536009	2.14903
O	419.377	-0.152987	2.81956
H	417.285	-0.94334	3.89299
H	416.998	-2.07796	2.5153
H	416.321	-0.396976	2.46432
N	418.451	-0.542853	0.814183
C	419.575	-0.0635484	0.0497986
C	419.059	0.447962	-1.28172
O	417.891	0.260887	-1.61798
H	417.656	-0.818998	0.281856
H	420.026	0.775721	0.564937
C	420.613	-1.18617	-0.167397
H	420.155	-2.04308	-0.705174
H	421.491	-0.825904	-0.742902
H	420.972	-1.5507	0.820042
N	419.921	1.11768	-2.07152
C	419.517	1.64605	-3.35378
H	420.861	1.26262	-1.78038
H	420.367	2.16327	-3.85108
H	418.685	2.37648	-3.23324
H	419.165	0.82791	-4.02269
