44
  This energy is 0 and Call times are: 8712
C	-1.49387	1.1194	-2.93734
C	-1.49775	0.303732	-1.7021
O	-2.51749	-0.246736	-1.31026
H	-2.51743	1.1342	-3.37092
H	-0.794611	0.683575	-3.68154
H	-1.18607	2.16118	-2.70704
N	-0.33674	0.209031	-1.04983
C	-0.193979	-0.51378	0.189409
C	0.930143	0.125218	0.982873
O	1.64982	0.983676	0.476087
H	0.474896	0.696355	-1.35907
H	-1.10081	-0.407252	0.771602
C	0.108689	-2.00525	-0.0735592
H	1.04457	-2.11553	-0.661783
H	0.207116	-2.5754	0.872889
H	-0.723058	-2.45028	-0.662193
N	1.10206	-0.275894	2.25786
C	2.14236	0.280076	3.09144
H	0.50708	-0.968751	2.65158
H	2.12091	-0.17771	4.10494
H	2.01129	1.381	3.2013
H	3.14564	0.0948058	2.64396
C	291.836	3.20958	0.674973
C	291.611	1.77011	0.412888
O	290.512	1.26017	0.580114
H	290.89	3.66883	1.03689
H	292.151	3.72365	-0.257222
H	292.619	3.33958	1.45161
N	292.668	1.07186	-0.00905138
C	292.616	-0.346096	-0.26442
C	293.999	-0.921253	-0.0246106
O	294.963	-0.183097	0.165791
H	293.566	1.49226	-0.101187
H	291.945	-0.81251	0.44617
C	292.155	-0.629501	-1.71095
H	292.849	-0.160081	-2.44049
H	292.097	-1.71821	-1.91567
H	291.144	-0.192897	-1.86625
N	294.126	-2.26283	-0.0200489
C	295.402	-2.90037	0.205265
H	293.333	-2.8436	-0.171922
H	295.3	-4.00748	0.171403
H	295.813	-2.61655	1.2014
H	296.138	-2.59194	-0.572017
