25
  This energy is -0.0161682 and Call times are: 190
C	0.233039	-2.55887	0.962906
O	0.121175	-2.05026	2.06474
O	-0.413307	-2.05518	-0.143716
H	0.848011	-3.44806	0.757797
H	-0.229415	-2.56648	-0.958186
C	-0.0386314	3.97636	0.691914
O	0.476881	5.08703	0.676285
O	0.527582	2.91099	1.33633
H	-0.990717	3.74171	0.194874
H	-0.00703346	2.08505	1.25865
C	-2.18398	0.560526	0.406643
O	-2.57549	1.58412	-0.121624
O	-0.994173	0.540101	1.11833
H	-2.70493	-0.403308	0.376216
H	-0.758771	-0.325589	1.50838
C	1.74902	-2.81936	-2.64247
O	0.687864	-3.32937	-2.32772
O	2.24563	-1.70832	-1.99823
H	2.39229	-3.19339	-3.45316
H	3.10596	-1.41122	-2.359
C	3.77677	0.272332	0.172415
O	3.99696	0.275093	-1.02623
O	2.79132	-0.509294	0.732796
H	4.33433	0.881769	0.899469
H	2.73051	-0.407441	1.70467
