25
  This energy is -0.0132967 and Call times are: 6705
C	-1.12306	2.08084	-1.39218
O	-2.14054	1.41011	-1.38242
O	-0.223695	2.05984	-0.349693
H	-0.837701	2.74971	-2.21806
H	0.544763	2.64831	-0.49727
C	-0.218845	-3.8071	1.32279
O	0.0810879	-4.99336	1.27374
O	-0.770051	-3.14269	0.261847
H	-0.0727499	-3.18011	2.21393
H	-0.955941	-2.19311	0.456213
C	-1.00116	0.0913765	2.0588
O	-0.50982	-0.615144	2.91874
O	-1.30436	-0.422077	0.806999
H	-1.24286	1.15373	2.17832
H	-1.69619	0.218159	0.179675
C	2.72199	2.61314	-1.93722
O	2.03721	3.35456	-1.25412
O	2.39342	1.2907	-2.13536
H	3.64538	2.92764	-2.44648
H	3.03518	0.819733	-2.70539
C	4.96173	-0.222588	-0.00981266
O	4.93332	0.427951	-1.03998
O	3.95172	-0.157586	0.923851
H	5.78035	-0.906266	0.261025
H	4.11126	-0.734292	1.69881
