25
  This energy is -0.0037655 and Call times are: 5934
C	-1.87192	1.94379	0.496946
O	-2.39969	1.56169	-0.532954
O	-1.20395	1.08302	1.33896
H	-1.88168	2.98953	0.839316
H	-0.832227	1.53148	2.12592
C	1.61365	-2.69431	-2.53545
O	2.47965	-3.06882	-3.31607
O	0.916884	-1.53059	-2.71194
H	1.32423	-3.25469	-1.63501
H	0.253489	-1.36679	-1.99983
C	-1.11968	-1.96722	0.35455
O	-0.431236	-2.96963	0.390801
O	-0.984015	-1.05074	-0.677067
H	-1.88027	-1.69804	1.0964
H	-1.57838	-0.275555	-0.624286
C	1.19721	3.08756	2.65033
O	0.162174	2.66651	3.13681
O	1.61187	2.72564	1.38813
H	1.87924	3.78053	3.16561
H	2.46031	3.14157	1.13172
C	3.74662	0.118893	0.3806
O	3.9507	1.0558	-0.371598
O	3.1477	-1.04489	-0.0471407
H	4.01716	0.118983	1.44724
H	3.04941	-1.70773	0.666716
