25
  This energy is -0.00085464 and Call times are: 1252
C	1.16103	0.294128	2.46877
O	0.748206	-0.831173	2.68901
O	1.56921	0.690615	1.21487
H	1.24295	1.07819	3.23652
H	1.87523	1.6203	1.18983
C	-2.45308	-2.05933	-2.45626
O	-3.51349	-2.22135	-3.0469
O	-2.38179	-1.91287	-1.0982
H	-1.47715	-2.018	-2.96067
H	-1.45841	-1.79147	-0.771587
C	1.30769	-1.55546	-1.05821
O	1.10313	-1.69778	-2.24901
O	0.257781	-1.56238	-0.15256
H	2.2936	-1.41398	-0.600758
H	0.516123	-1.44126	0.783153
C	0.777012	3.98847	1.2161
O	1.85528	3.43136	1.3266
O	-0.387927	3.28874	0.993888
H	0.640505	5.07835	1.28265
H	-1.17403	3.86854	0.927056
C	7.16811	-0.379733	-0.18782
O	6.39978	0.3589	-0.778861
O	7.93478	0.0574518	0.869139
H	7.31505	-1.44057	-0.440671
H	8.50339	-0.645822	1.24423
