25
  This energy is -0.00592686 and Call times are: 4305
C	0.815206	1.85571	-1.84962
O	1.70684	2.10901	-1.05838
O	0.306189	0.58455	-1.99495
H	0.346557	2.60482	-2.50545
H	-0.40446	0.532944	-2.66645
C	0.248412	-1.51895	3.73132
O	-0.170183	-1.67329	4.87173
O	0.48951	-0.283311	3.19658
H	0.464378	-2.3509	3.0459
H	0.824024	-0.3234	2.26893
C	1.61962	-1.61896	-0.0715209
O	1.36522	-2.64958	0.522782
O	1.44573	-0.386554	0.539632
H	1.99376	-1.56065	-1.10007
H	1.67542	0.386972	-0.0134212
C	-2.92307	1.20003	-2.82951
O	-1.98184	0.837888	-3.51374
O	-2.81301	1.37342	-1.46793
H	-3.92478	1.4165	-3.23028
H	-3.64955	1.66651	-1.05212
C	5.51944	0.126385	0.249949
O	5.65181	0.726318	-0.802575
O	4.48909	-0.762613	0.460036
H	6.1976	0.239049	1.1092
H	4.51097	-1.16787	1.35104
