44
  This energy is -8.251 and Call times are: 127884
C	1.80976	-0.570921	2.91745
C	1.16164	-1.04178	1.67271
O	1.34709	-2.17546	1.25224
H	2.44824	-1.38269	3.32885
H	1.04039	-0.301814	3.67137
H	2.44581	0.314517	2.7064
N	0.375118	-0.16464	1.04471
C	-0.28906	-0.46263	-0.199729
C	-0.472621	0.836799	-0.960876
O	-0.230514	1.91822	-0.428318
H	0.266448	0.76779	1.37732
H	0.346946	-1.10108	-0.80015
C	-1.6539	-1.14026	0.0518243
H	-2.3106	-0.48125	0.65886
H	-2.16902	-1.3873	-0.89904
H	-1.49609	-2.0848	0.616879
N	-0.90001	0.759203	-2.23655
C	-1.09827	1.94257	-3.04062
H	-1.08673	-0.125171	-2.65139
H	-1.45146	1.6709	-4.05977
H	-0.146908	2.51378	-3.14008
H	-1.85604	2.61259	-2.57373
C	7.23385	2.2577	1.42318
C	5.88949	1.64789	1.31375
O	5.02392	1.86964	2.14923
H	7.28169	2.87853	2.34412
H	7.43353	2.9044	0.543029
H	8.00967	1.46549	1.48315
N	5.68335	0.850299	0.263166
C	4.4411	0.151987	0.044733
C	4.74235	-1.11913	-0.726674
O	5.86061	-1.32075	-1.19631
H	6.41057	0.647018	-0.386212
H	4.02361	-0.141575	0.999796
C	3.4418	1.03453	-0.734866
H	3.86541	1.32726	-1.7192
H	2.47629	0.513065	-0.897321
H	3.2422	1.96242	-0.155633
N	3.74611	-2.01547	-0.868438
C	3.9413	-3.25599	-1.58202
H	2.84922	-1.8364	-0.477811
H	3.00552	-3.85724	-1.58877
H	4.74403	-3.86239	-1.10329
H	4.23977	-3.05967	-2.63725
