44
  This energy is -3.189 and Call times are: 132940
C	-0.00218943	2.67494	2.22652
C	-0.379919	1.29492	1.84703
O	-0.860494	0.522584	2.66493
H	-0.211799	2.82906	3.30735
H	-0.591932	3.40873	1.63788
H	1.08065	2.83936	2.04346
N	-0.1647	0.949085	0.575631
C	-0.441192	-0.371729	0.0681257
C	0.50873	-0.644608	-1.08285
O	1.21848	0.249654	-1.5392
H	0.265099	1.57562	-0.0682575
H	-0.231327	-1.10203	0.839647
C	-1.90799	-0.486399	-0.401551
H	-2.12089	0.255527	-1.20046
H	-2.13715	-1.503	-0.781724
H	-2.58511	-0.27502	0.454703
N	0.549849	-1.8981	-1.5759
C	1.4271	-2.25272	-2.66716
H	-0.0290395	-2.60917	-1.19075
H	1.31535	-3.32822	-2.928
H	2.49075	-2.06748	-2.39217
H	1.1938	-1.64619	-3.57205
C	6.84185	-2.63244	1.71971
C	6.87091	-1.55768	0.702261
O	7.91755	-1.22309	0.16466
H	7.87391	-3.01227	1.8823
H	6.20099	-3.47026	1.37316
H	6.44813	-2.23915	2.68064
N	5.70136	-0.982383	0.413166
C	5.57702	0.106011	-0.524114
C	4.38362	0.948584	-0.114921
O	3.61586	0.567082	0.766382
H	4.86445	-1.23758	0.888892
H	6.45493	0.736504	-0.457901
C	5.39788	-0.42349	-1.96383
H	4.49149	-1.06183	-2.03471
H	5.31488	0.405081	-2.6967
H	6.27879	-1.04363	-2.23905
N	4.20446	2.12646	-0.744621
C	3.09976	2.99778	-0.418109
H	4.83867	2.41993	-1.45225
H	3.12557	3.91694	-1.04398
H	3.14251	3.30175	0.652899
H	2.12768	2.48208	-0.592063
