44
  This energy is -1.6265 and Call times are: 130695
C	-1.93406	1.19078	2.63707
C	-0.766467	0.450835	2.10759
O	0.141831	0.0910274	2.84376
H	-1.80535	1.34638	3.73027
H	-2.86511	0.61126	2.46372
H	-2.01713	2.18055	2.14054
N	-0.764537	0.205785	0.79522
C	0.322721	-0.465812	0.127846
C	0.37298	0.0256048	-1.30657
O	-0.52496	0.731006	-1.76245
H	-1.49133	0.540797	0.202431
H	1.25748	-0.186143	0.597569
C	0.133085	-1.998	0.168974
H	-0.820708	-2.28631	-0.322136
H	0.970937	-2.52708	-0.329617
H	0.0911072	-2.3343	1.22797
N	1.43656	-0.331658	-2.05301
C	1.57301	0.0933437	-3.42667
H	2.15507	-0.899517	-1.66525
H	2.51365	-0.302392	-3.86918
H	1.59495	1.20525	-3.49347
H	0.716606	-0.272412	-4.03818
C	7.12625	2.67449	-1.11777
C	5.91573	1.82478	-1.17924
O	4.94587	2.15221	-1.84899
H	6.96657	3.58633	-1.73332
H	8.00278	2.12122	-1.51568
H	7.32686	2.97946	-0.0690476
N	5.94616	0.696055	-0.466891
C	4.82812	-0.21119	-0.39316
C	4.88771	-0.927682	0.942751
O	5.86901	-0.814562	1.67484
H	6.72697	0.463298	0.105832
H	3.90588	0.355959	-0.414154
C	4.86517	-1.22798	-1.55506
H	5.80641	-1.81735	-1.52777
H	4.00179	-1.92344	-1.51729
H	4.8286	-0.68119	-2.52254
N	3.82731	-1.68031	1.29646
C	3.79212	-2.39432	2.55151
H	3.04078	-1.75631	0.692586
H	2.83716	-2.95451	2.65862
H	3.88183	-1.6876	3.40811
H	4.63412	-3.12115	2.61397
