44
  This energy is -4.0211 and Call times are: 3911
C	-0.625616	-0.889653	-3.30603
C	-0.714775	0.057776	-2.1722
O	-1.08278	1.21233	-2.33949
H	-0.917147	-0.368643	-4.24381
H	-1.31183	-1.74715	-3.14309
H	0.414616	-1.26374	-3.41124
N	-0.37143	-0.417922	-0.972944
C	-0.365801	0.395477	0.217396
C	0.677782	-0.16256	1.16665
O	1.2284	-1.23741	0.935953
H	-0.0347632	-1.3483	-0.859298
H	-0.0623393	1.40269	-0.0396349
C	-1.7576	0.403379	0.886771
H	-2.0648	-0.628562	1.1602
H	-1.76986	1.03747	1.79688
H	-2.50657	0.808031	0.171468
N	0.981325	0.564712	2.25979
C	1.96599	0.116226	3.21659
H	0.528084	1.43397	2.42721
H	2.07374	0.851659	4.04409
H	2.95938	-0.00977139	2.72814
H	1.67	-0.864262	3.65497
C	9.20327	-0.384952	1.42179
C	7.74909	-0.128776	1.52618
O	7.18315	-0.125629	2.61066
H	9.61689	-0.572693	2.43644
H	9.71641	0.495879	0.981826
H	9.39014	-1.27662	0.786902
N	7.10181	0.0931856	0.379814
C	5.67862	0.314837	0.3169
C	5.18429	-0.166234	-1.03431
O	5.97735	-0.493422	-1.91505
H	7.56877	0.0468569	-0.498622
H	5.18956	-0.287388	1.07239
C	5.34374	1.80941	0.515246
H	5.83671	2.4266	-0.265852
H	4.2499	1.99102	0.482724
H	5.72163	2.14173	1.50676
N	3.85196	-0.228452	-1.22677
C	3.28925	-0.679244	-2.4783
H	3.2261	0.0366293	-0.500751
H	2.17779	-0.659245	-2.43963
H	3.61344	-1.72143	-2.70197
H	3.6229	-0.0263785	-3.3171
