44
  This energy is -3.9847 and Call times are: 3814
C	-0.925549	-2.59267	-2.12935
C	-0.898196	-1.16094	-1.75447
O	-1.25679	-0.294079	-2.53956
H	-1.28671	-2.69142	-3.1761
H	-1.61165	-3.15094	-1.45828
H	0.0942796	-3.02631	-2.05866
N	-0.461993	-0.877665	-0.524887
C	-0.337949	0.471435	-0.0318328
C	0.772593	0.497156	1.00141
O	1.28031	-0.546837	1.40639
H	-0.13489	-1.59108	0.0882259
H	-0.0383057	1.12235	-0.843715
C	-1.66642	0.956279	0.588918
H	-1.96885	0.294967	1.4287
H	-1.58783	1.99878	0.959791
H	-2.46629	0.921535	-0.182667
N	1.18333	1.70041	1.44807
C	2.23797	1.8235	2.42724
H	0.763165	2.53417	1.10547
H	2.43092	2.8928	2.66509
H	3.18289	1.37335	2.04546
H	1.96191	1.2986	3.37033
C	8.0016	2.63381	-0.325715
C	6.79569	1.88971	-0.753799
O	6.01525	2.36362	-1.56789
H	8.02611	3.6198	-0.838631
H	8.9171	2.06604	-0.594473
H	7.97898	2.80022	0.77195
N	6.61348	0.687417	-0.202738
C	5.46491	-0.136147	-0.487505
C	5.1925	-1.00405	0.726624
O	5.99129	-1.04961	1.6602
H	7.23582	0.332581	0.489094
H	4.59844	0.496999	-0.632369
C	5.7101	-1.01238	-1.73544
H	6.59262	-1.66968	-1.58327
H	4.82765	-1.64106	-1.97325
H	5.91513	-0.35669	-2.60973
N	4.04538	-1.71099	0.745198
C	3.69871	-2.56004	1.86104
H	3.40963	-1.65797	-0.0177484
H	2.71814	-3.05586	1.68817
H	3.62987	-1.96529	2.80063
H	4.47021	-3.35013	2.00833
