44
  This energy is -3.4486 and Call times are: 3437
C	-0.44123	2.86165	-1.93105
C	-0.638802	2.08684	-0.685345
O	-1.08259	2.61492	0.324899
H	-0.735665	3.91932	-1.75633
H	-1.06944	2.44358	-2.74548
H	0.626295	2.83138	-2.2353
N	-0.305344	0.794901	-0.730847
C	-0.400828	-0.0769834	0.413382
C	0.645482	-1.16573	0.267034
O	1.27983	-1.29313	-0.778474
H	0.0930228	0.388981	-1.54841
H	-0.161517	0.482028	1.30941
C	-1.81268	-0.693731	0.520735
H	-2.05453	-1.27608	-0.393824
H	-1.90307	-1.35631	1.4058
H	-2.56268	0.121251	0.618993
N	0.856621	-1.97602	1.32291
C	1.83606	-3.03661	1.27788
H	0.33638	-1.85474	2.16178
H	1.86096	-3.59013	2.24236
H	2.85279	-2.62435	1.08405
H	1.59578	-3.75927	0.464755
C	4.62693	-0.853934	3.36631
C	4.35525	0.118654	2.28399
O	3.83728	1.2012	2.52107
H	4.27544	-0.434335	4.33391
H	5.71677	-1.05422	3.43616
H	4.08833	-1.805	3.17022
N	4.70324	-0.253995	1.05013
C	4.46292	0.56684	-0.110489
C	4.29573	-0.347108	-1.30979
O	4.53355	-1.55026	-1.22272
H	5.08642	-1.15492	0.867459
H	3.53133	1.10366	0.0183305
C	5.62907	1.55313	-0.339725
H	6.58329	1.00254	-0.482436
H	5.44947	2.20034	-1.22256
H	5.73814	2.20643	0.553387
N	3.87137	0.205964	-2.46306
C	3.67811	-0.586334	-3.65516
H	3.68016	1.18066	-2.51285
H	3.32616	0.0495349	-4.4972
H	2.92077	-1.38406	-3.47808
H	4.63095	-1.07647	-3.96011
