44
  This energy is 0.1047 and Call times are: 21218
C	2.92144	-1.6613	0.904405
C	2.20492	-0.576505	0.196623
O	2.80975	0.367604	-0.292503
H	4.01092	-1.44016	0.908544
H	2.75342	-2.63049	0.389444
H	2.56552	-1.73392	1.95375
N	0.876389	-0.689072	0.12791
C	0.0391606	0.308338	-0.490783
C	-1.31896	0.270704	0.184225
O	-1.60312	-0.624172	0.978056
H	0.394814	-1.44249	0.566442
H	0.461027	1.28955	-0.312249
C	-0.10203	0.0471332	-2.00639
H	-0.544549	-0.95513	-2.18992
H	-0.733189	0.816404	-2.49668
H	0.904477	0.0713738	-2.47831
N	-2.19177	1.25388	-0.111746
C	-3.50566	1.30352	0.486094
H	-1.94214	1.97156	-0.753377
H	-4.07281	2.1861	0.116463
H	-3.43002	1.37501	1.59535
H	-4.0853	0.385023	0.238074
C	7.74377	1.7447	-2.64278
C	7.01859	1.69862	-1.35315
O	6.8476	2.71	-0.686599
H	8.07856	2.78649	-2.83886
H	7.07662	1.42013	-3.4688
H	8.63414	1.08222	-2.60501
N	6.57094	0.501759	-0.966471
C	5.88539	0.291189	0.284226
C	6.14737	-1.13411	0.733076
O	6.70355	-1.9373	-0.0134152
H	6.75355	-0.319143	-1.49998
H	6.30417	0.948306	1.03618
C	4.36896	0.540545	0.130956
H	3.93689	-0.140614	-0.632837
H	3.83177	0.395088	1.09054
H	4.20128	1.58689	-0.205773
N	5.75717	-1.48005	1.97569
C	5.9697	-2.81242	2.49124
H	5.31237	-0.815067	2.56647
H	5.58029	-2.89908	3.52955
H	7.05576	-3.06065	2.50241
H	5.44966	-3.56672	1.85742
