44
  This energy is -5.1812 and Call times are: 195718
C	0.275374	0.0850318	3.46837
C	-0.436828	-0.291173	2.22645
O	-1.38911	-1.05863	2.25057
H	-0.18597	-0.443436	4.33079
H	0.200227	1.18003	3.63591
H	1.34488	-0.205583	3.3992
N	0.0191057	0.249196	1.09397
C	-0.543286	-0.0550725	-0.198195
C	0.549281	0.10338	-1.23874
O	1.63626	0.594726	-0.940809
H	0.820792	0.840037	1.08543
H	-0.857809	-1.09112	-0.215915
C	-1.73273	0.877495	-0.515641
H	-1.40829	1.93991	-0.507971
H	-2.18321	0.644053	-1.5021
H	-2.51648	0.750636	0.262818
N	0.286517	-0.32018	-2.49077
C	1.26733	-0.214927	-3.54581
H	-0.59744	-0.718831	-2.71162
H	0.862485	-0.616925	-4.50066
H	2.18669	-0.788125	-3.28603
H	1.55769	0.848351	-3.7079
C	6.36474	1.32101	3.03875
C	5.38184	1.2139	1.93712
O	4.26507	1.70336	2.03539
H	5.90449	1.86872	3.88966
H	7.26315	1.87692	2.69734
H	6.66525	0.309024	3.3832
N	5.78267	0.557418	0.845905
C	4.9241	0.334262	-0.290591
C	5.36552	-0.94705	-0.972473
O	6.40536	-1.51201	-0.638907
H	6.68049	0.129202	0.796904
H	3.9084	0.183315	0.0531998
C	4.99175	1.52249	-1.27486
H	6.03172	1.67114	-1.63599
H	4.32438	1.36887	-2.14753
H	4.67217	2.4505	-0.752371
N	4.57477	-1.44235	-1.94479
C	4.91104	-2.65957	-2.64585
H	3.73517	-0.973209	-2.19788
H	4.13717	-2.90144	-3.40733
H	4.98312	-3.51485	-1.93551
H	5.89232	-2.55688	-3.16325
