10
  This energy is -0.00692784 and Call times are: 93
C	0.247364	0.116924	-0.325008
O	-0.887961	0.0582667	-0.764149
O	0.537635	-0.166056	0.990945
H	1.12436	0.39559	-0.928442
H	1.49025	-0.0770901	1.19884
C	3.85381	0.395982	-0.00546775
O	3.75074	0.0861239	1.16867
O	3.50433	-0.464619	-1.02198
H	4.22776	1.37135	-0.351471
H	3.64096	-0.0792555	-1.9116
