 Entering Gaussian System, Link 0=g09
 Input=opt-chooh.gjf
 Output=opt-chooh.log
 Initial command:
 /usr/g09/l1.exe /scratch/litao/gaussian/Gau-8283.inp -scrdir=/scratch/litao/gaussian/
 Entering Link 1 = /usr/g09/l1.exe PID=      8284.
  
 Copyright (c) 1988,1990,1992,1993,1995,1998,2003,2009, Gaussian, Inc.
                  All Rights Reserved.
  
 This is part of the Gaussian(R) 09 program.  It is based on
 the Gaussian(R) 03 system (copyright 2003, Gaussian, Inc.),
 the Gaussian(R) 98 system (copyright 1998, Gaussian, Inc.),
 the Gaussian(R) 94 system (copyright 1995, Gaussian, Inc.),
 the Gaussian 92(TM) system (copyright 1992, Gaussian, Inc.),
 the Gaussian 90(TM) system (copyright 1990, Gaussian, Inc.),
 the Gaussian 88(TM) system (copyright 1988, Gaussian, Inc.),
 the Gaussian 86(TM) system (copyright 1986, Carnegie Mellon
 University), and the Gaussian 82(TM) system (copyright 1983,
 Carnegie Mellon University). Gaussian is a federally registered
 trademark of Gaussian, Inc.
  
 This software contains proprietary and confidential information,
 including trade secrets, belonging to Gaussian, Inc.
  
 This software is provided under written license and may be
 used, copied, transmitted, or stored only in accord with that
 written license.
  
 The following legend is applicable only to US Government
 contracts under FAR:
  
                    RESTRICTED RIGHTS LEGEND
  
 Use, reproduction and disclosure by the US Government is
 subject to restrictions as set forth in subparagraphs (a)
 and (c) of the Commercial Computer Software - Restricted
 Rights clause in FAR 52.227-19.
  
 Gaussian, Inc.
 340 Quinnipiac St., Bldg. 40, Wallingford CT 06492
  
  
 ---------------------------------------------------------------
 Warning -- This program may not be used in any manner that
 competes with the business of Gaussian, Inc. or will provide
 assistance to any competitor of Gaussian, Inc.  The licensee
 of this program is prohibited from giving any competitor of
 Gaussian, Inc. access to this program.  By using this program,
 the user acknowledges that Gaussian, Inc. is engaged in the
 business of creating and licensing software in the field of
 computational chemistry and represents and warrants to the
 licensee that it is not a competitor of Gaussian, Inc. and that
 it will not use this program in any manner prohibited above.
 ---------------------------------------------------------------
  

 Cite this work as:
 Gaussian 09, Revision A.01,
 M. J. Frisch, G. W. Trucks, H. B. Schlegel, G. E. Scuseria, 
 M. A. Robb, J. R. Cheeseman, G. Scalmani, V. Barone, B. Mennucci, 
 G. A. Petersson, H. Nakatsuji, M. Caricato, X. Li, H. P. Hratchian, 
 A. F. Izmaylov, J. Bloino, G. Zheng, J. L. Sonnenberg, M. Hada, 
 M. Ehara, K. Toyota, R. Fukuda, J. Hasegawa, M. Ishida, T. Nakajima, 
 Y. Honda, O. Kitao, H. Nakai, T. Vreven, J. A. Montgomery, Jr., 
 J. E. Peralta, F. Ogliaro, M. Bearpark, J. J. Heyd, E. Brothers, 
 K. N. Kudin, V. N. Staroverov, R. Kobayashi, J. Normand, 
 K. Raghavachari, A. Rendell, J. C. Burant, S. S. Iyengar, J. Tomasi, 
 M. Cossi, N. Rega, J. M. Millam, M. Klene, J. E. Knox, J. B. Cross, 
 V. Bakken, C. Adamo, J. Jaramillo, R. Gomperts, R. E. Stratmann, 
 O. Yazyev, A. J. Austin, R. Cammi, C. Pomelli, J. W. Ochterski, 
 R. L. Martin, K. Morokuma, V. G. Zakrzewski, G. A. Voth, 
 P. Salvador, J. J. Dannenberg, S. Dapprich, A. D. Daniels, 
 O. Farkas, J. B. Foresman, J. V. Ortiz, J. Cioslowski, 
 and D. J. Fox, Gaussian, Inc., Wallingford CT, 2009.
 
 ******************************************
 Gaussian 09:  EM64L-G09RevA.01  8-May-2009
                 1-May-2015 
 ******************************************
 %nprocshared=8
 Will use up to    8 processors via shared memory.
 %mem=8GB
 %chk=opt-chooh.chk
 -----------------
 # opt b3lyp/6-31g
 -----------------
 1/14=-1,18=20,19=15,26=3,38=1/1,3;
 2/9=110,12=2,17=6,18=5,40=1/2;
 3/5=1,6=6,11=2,16=1,25=1,30=1,71=1,74=-5/1,2,3;
 4//1;
 5/5=2,38=5/2;
 6/7=2,8=2,9=2,10=2,28=1/1;
 7//1,2,3,16;
 1/14=-1,18=20,19=15/3(2);
 2/9=110/2;
 99//99;
 2/9=110/2;
 3/5=1,6=6,11=2,16=1,25=1,30=1,71=1,74=-5/1,2,3;
 4/5=5,16=3/1;
 5/5=2,38=5/2;
 7//1,2,3,16;
 1/14=-1,18=20,19=15/3(-5);
 2/9=110/2;
 6/7=2,8=2,9=2,10=2,19=2,28=1/1;
 99/9=1/99;
 -------------------
 Title Card Required
 -------------------
 Symbolic Z-matrix:
 Charge =  0 Multiplicity = 1
 C                     0.18182  -0.31759  -0.2158 
 O                    -1.01622  -0.4082   -0.42006 
 O                     0.71476   0.67076   0.58121 
 H                     0.92978  -1.00346  -0.64129 
 H                     1.68976   0.61803   0.65325 
 C                     4.32832  -0.21436   0.16354 
 O                     3.45909  -1.0391   -0.0589 
 O                     4.15305   1.12398  -0.10884 
 H                     5.31108  -0.46025   0.59322 
 H                     4.93542   1.66558   0.12173 
 

 GradGradGradGradGradGradGradGradGradGradGradGradGradGradGradGradGradGrad
 Berny optimization.
 Initialization pass.
                           ----------------------------
                           !    Initial Parameters    !
                           ! (Angstroms and Degrees)  !
 --------------------------                            --------------------------
 ! Name  Definition              Value          Derivative Info.                !
 --------------------------------------------------------------------------------
 ! R1    R(1,2)                  1.2187         estimate D2E/DX2                !
 ! R2    R(1,3)                  1.377          estimate D2E/DX2                !
 ! R3    R(1,4)                  1.1004         estimate D2E/DX2                !
 ! R4    R(3,5)                  0.9791         estimate D2E/DX2                !
 ! R5    R(4,7)                  2.5957         estimate D2E/DX2                !
 ! R6    R(5,6)                  2.8097         estimate D2E/DX2                !
 ! R7    R(5,7)                  2.5266         estimate D2E/DX2                !
 ! R8    R(5,8)                  2.6277         estimate D2E/DX2                !
 ! R9    R(6,7)                  1.2187         estimate D2E/DX2                !
 ! R10   R(6,8)                  1.377          estimate D2E/DX2                !
 ! R11   R(6,9)                  1.1004         estimate D2E/DX2                !
 ! R12   R(8,10)                 0.9791         estimate D2E/DX2                !
 ! A1    A(2,1,3)              122.0631         estimate D2E/DX2                !
 ! A2    A(2,1,4)              123.851          estimate D2E/DX2                !
 ! A3    A(3,1,4)              114.0859         estimate D2E/DX2                !
 ! A4    A(1,3,5)              112.9145         estimate D2E/DX2                !
 ! A5    A(1,4,7)              125.741          estimate D2E/DX2                !
 ! A6    A(3,5,6)              159.7665         estimate D2E/DX2                !
 ! A7    A(3,5,7)              135.393          estimate D2E/DX2                !
 ! A8    A(3,5,8)              154.4005         estimate D2E/DX2                !
 ! A9    A(7,5,8)               52.2705         estimate D2E/DX2                !
 ! A10   A(5,6,9)              146.8052         estimate D2E/DX2                !
 ! A11   A(7,6,8)              122.0633         estimate D2E/DX2                !
 ! A12   A(7,6,9)              123.8511         estimate D2E/DX2                !
 ! A13   A(8,6,9)              114.0857         estimate D2E/DX2                !
 ! A14   A(4,7,5)               51.0882         estimate D2E/DX2                !
 ! A15   A(4,7,6)              136.6062         estimate D2E/DX2                !
 ! A16   A(5,8,10)             141.9354         estimate D2E/DX2                !
 ! A17   A(6,8,10)             112.9144         estimate D2E/DX2                !
 ! D1    D(2,1,3,5)            179.9999         estimate D2E/DX2                !
 ! D2    D(4,1,3,5)             -0.0001         estimate D2E/DX2                !
 ! D3    D(2,1,4,7)           -173.0289         estimate D2E/DX2                !
 ! D4    D(3,1,4,7)              6.9711         estimate D2E/DX2                !
 ! D5    D(1,3,5,6)              8.0754         estimate D2E/DX2                !
 ! D6    D(1,3,5,7)             -8.286          estimate D2E/DX2                !
 ! D7    D(1,3,5,8)             87.4107         estimate D2E/DX2                !
 ! D8    D(1,4,7,5)             -6.9966         estimate D2E/DX2                !
 ! D9    D(1,4,7,6)            -39.2155         estimate D2E/DX2                !
 ! D10   D(3,5,6,9)           -139.9544         estimate D2E/DX2                !
 ! D11   D(3,5,7,4)              8.5065         estimate D2E/DX2                !
 ! D12   D(8,5,7,4)           -138.5639         estimate D2E/DX2                !
 ! D13   D(3,5,8,10)           105.964          estimate D2E/DX2                !
 ! D14   D(7,5,8,10)          -136.1042         estimate D2E/DX2                !
 ! D15   D(8,6,7,4)            -12.9084         estimate D2E/DX2                !
 ! D16   D(9,6,7,4)            167.0917         estimate D2E/DX2                !
 ! D17   D(7,6,8,10)          -179.9999         estimate D2E/DX2                !
 ! D18   D(9,6,8,10)             0.0            estimate D2E/DX2                !
 --------------------------------------------------------------------------------
 Trust Radius=3.00D-01 FncErr=1.00D-07 GrdErr=1.00D-06
 Number of steps in this run=  57 maximum allowed number of steps= 100.
 GradGradGradGradGradGradGradGradGradGradGradGradGradGradGradGradGradGrad

                          Input orientation:                          
 ---------------------------------------------------------------------
 Center     Atomic      Atomic             Coordinates (Angstroms)
 Number     Number       Type             X           Y           Z
 ---------------------------------------------------------------------
      1          6           0        0.181822   -0.317588   -0.215799
      2          8           0       -1.016220   -0.408203   -0.420064
      3          8           0        0.714759    0.670755    0.581211
      4          1           0        0.929782   -1.003460   -0.641285
      5          1           0        1.689760    0.618032    0.653249
      6          6           0        4.328320   -0.214361    0.163541
      7          8           0        3.459090   -1.039100   -0.058903
      8          8           0        4.153050    1.123980   -0.108840
      9          1           0        5.311080   -0.460254    0.593224
     10          1           0        4.935420    1.665580    0.121728
 ---------------------------------------------------------------------
                    Distance matrix (angstroms):
                    1          2          3          4          5
     1  C    0.000000
     2  O    1.218704   0.000000
     3  O    1.376978   2.272221   0.000000
     4  H    1.100410   2.046996   2.084161   0.000000
     5  H    1.975982   3.086663   0.979079   2.209665   0.000000
     6  C    4.165093   5.379803   3.743755   3.580570   2.809749
     7  O    3.359417   4.533968   3.296165   2.595734   2.526614
     8  O    4.226134   5.400537   3.536019   3.898584   2.627653
     9  H    5.194628   6.408134   4.733444   4.584196   3.778923
    10  H    5.161741   6.325831   4.360594   4.873510   3.451692
                    6          7          8          9         10
     6  C    0.000000
     7  O    1.218703   0.000000
     8  O    1.376978   2.272221   0.000000
     9  H    1.100413   2.046998   2.084160   0.000000
    10  H    1.975980   3.086660   0.979079   2.209660   0.000000
 Stoichiometry    C2H4O4
 Framework group  C1[X(C2H4O4)]
 Deg. of freedom    24
 Full point group                 C1      NOp   1
 Largest Abelian subgroup         C1      NOp   1
 Largest concise Abelian subgroup C1      NOp   1
                         Standard orientation:                         
 ---------------------------------------------------------------------
 Center     Atomic      Atomic             Coordinates (Angstroms)
 Number     Number       Type             X           Y           Z
 ---------------------------------------------------------------------
      1          6           0        1.896855    0.196444   -0.102934
      2          8           0        3.106277    0.218000   -0.251509
      3          8           0        1.250304   -0.873286    0.474749
      4          1           0        1.226802    1.013227   -0.410827
      5          1           0        0.280523   -0.749406    0.527417
      6          6           0       -2.257244    0.389249    0.130057
      7          8           0       -1.314958    1.161304    0.094513
      8          8           0       -2.178837   -0.884155   -0.387981
      9          1           0       -3.235209    0.635532    0.570328
     10          1           0       -3.012076   -1.388416   -0.287838
 ---------------------------------------------------------------------
 Rotational constants (GHZ):      8.2058873      1.2128678      1.0949311
 Standard basis: 6-31G (6D, 7F)
 There are    62 symmetry adapted basis functions of A   symmetry.
 Integral buffers will be    131072 words long.
 Raffenetti 2 integral format.
 Two-electron integral symmetry is turned on.
    62 basis functions,   148 primitive gaussians,    62 cartesian basis functions
    24 alpha electrons       24 beta electrons
       nuclear repulsion energy       213.6439867061 Hartrees.
 NAtoms=   10 NActive=   10 NUniq=   10 SFac= 7.50D-01 NAtFMM=   80 NAOKFM=F Big=F
 One-electron integrals computed using PRISM.
 NBasis=    62 RedAO= T  NBF=    62
 NBsUse=    62 1.00D-06 NBFU=    62
 Harris functional with IExCor=  402 diagonalized for initial guess.
 ExpMin= 1.61D-01 ExpMax= 5.48D+03 ExpMxC= 8.25D+02 IAcc=1 IRadAn=         1 AccDes= 0.00D+00
 HarFok:  IExCor=  402 AccDes= 0.00D+00 IRadAn=         1 IDoV= 1
 ScaDFX=  1.000000  1.000000  1.000000  1.000000
 FoFCou: FMM=F IPFlag=           0 FMFlag=      100000 FMFlg1=           0
         NFxFlg=           0 DoJE=T BraDBF=F KetDBF=T FulRan=T
         Omega=  0.000000  0.000000  1.000000  0.000000  0.000000 ICntrl=     500 IOpCl=  0
         NMat0=    1 NMatS0=    1 NMatT0=    0 NMatD0=    1 NMtDS0=    0 NMtDT0=    0
         I1Cent=           4 NGrid=           0.
 Petite list used in FoFCou.
 Initial guess orbital symmetries:
       Occupied  (A) (A) (A) (A) (A) (A) (A) (A) (A) (A) (A) (A)
                 (A) (A) (A) (A) (A) (A) (A) (A) (A) (A) (A) (A)
       Virtual   (A) (A) (A) (A) (A) (A) (A) (A) (A) (A) (A) (A)
                 (A) (A) (A) (A) (A) (A) (A) (A) (A) (A) (A) (A)
                 (A) (A) (A) (A) (A) (A) (A) (A) (A) (A) (A) (A)
                 (A) (A)
 The electronic state of the initial guess is 1-A.
 Requested convergence on RMS density matrix=1.00D-08 within 128 cycles.
 Requested convergence on MAX density matrix=1.00D-06.
 Requested convergence on             energy=1.00D-06.
 No special actions if energy rises.
 Keep R1 ints in memory in canonical form, NReq=2903068.
 Integral accuracy reduced to 1.0D-05 until final iterations.
 Initial convergence to 1.0D-05 achieved.  Increase integral accuracy.
 SCF Done:  E(RB3LYP) =  -379.365055403     A.U. after   14 cycles
             Convg  =    0.8930D-08             -V/T =  2.0056

 **********************************************************************

            Population analysis using the SCF density.

 **********************************************************************

 Orbital symmetries:
       Occupied  (A) (A) (A) (A) (A) (A) (A) (A) (A) (A) (A) (A)
                 (A) (A) (A) (A) (A) (A) (A) (A) (A) (A) (A) (A)
       Virtual   (A) (A) (A) (A) (A) (A) (A) (A) (A) (A) (A) (A)
                 (A) (A) (A) (A) (A) (A) (A) (A) (A) (A) (A) (A)
                 (A) (A) (A) (A) (A) (A) (A) (A) (A) (A) (A) (A)
                 (A) (A)
 The electronic state is 1-A.
 Alpha  occ. eigenvalues --  -19.24517 -19.20206 -19.18029 -19.13524 -10.37874
 Alpha  occ. eigenvalues --  -10.31311  -1.15973  -1.09395  -1.08798  -1.02282
 Alpha  occ. eigenvalues --   -0.68909  -0.62766  -0.62425  -0.56141  -0.49144
 Alpha  occ. eigenvalues --   -0.48781  -0.43051  -0.42640  -0.42350  -0.36868
 Alpha  occ. eigenvalues --   -0.36621  -0.33188  -0.30382  -0.26473
 Alpha virt. eigenvalues --   -0.05939   0.00492   0.00821   0.06796   0.09369
 Alpha virt. eigenvalues --    0.14215   0.22283   0.24090   0.28605   0.29023
 Alpha virt. eigenvalues --    0.47680   0.52871   0.54510   0.57539   0.64723
 Alpha virt. eigenvalues --    0.65541   0.68998   0.71522   0.77650   0.79892
 Alpha virt. eigenvalues --    0.81779   0.84441   0.89085   0.92455   0.94309
 Alpha virt. eigenvalues --    0.95220   0.95743   1.00248   1.01369   1.10336
 Alpha virt. eigenvalues --    1.15266   1.16441   1.27057   1.31120   1.58016
 Alpha virt. eigenvalues --    1.65599   1.66232   1.74767
          Condensed to atoms (all electrons):
              1          2          3          4          5          6
     1  C    4.716156   0.484185   0.124733   0.336197  -0.003834   0.000512
     2  O    0.484185   8.033271  -0.079158  -0.069253   0.003760   0.000002
     3  O    0.124733  -0.079158   8.380361  -0.099004   0.214372  -0.000203
     4  H    0.336197  -0.069253  -0.099004   0.671653   0.002394  -0.000628
     5  H   -0.003834   0.003760   0.214372   0.002394   0.378388   0.005543
     6  C    0.000512   0.000002  -0.000203  -0.000628   0.005543   4.701711
     7  O   -0.001321   0.000020  -0.001326   0.008714   0.006941   0.468178
     8  O   -0.000145   0.000000  -0.000384  -0.000034   0.004505   0.118047
     9  H    0.000002   0.000000  -0.000017   0.000036   0.000493   0.339861
    10  H    0.000006   0.000000   0.000011   0.000001   0.000005  -0.000980
              7          8          9         10
     1  C   -0.001321  -0.000145   0.000002   0.000006
     2  O    0.000020   0.000000   0.000000   0.000000
     3  O   -0.001326  -0.000384  -0.000017   0.000011
     4  H    0.008714  -0.000034   0.000036   0.000001
     5  H    0.006941   0.004505   0.000493   0.000005
     6  C    0.468178   0.118047   0.339861  -0.000980
     7  O    8.024966  -0.079746  -0.065388   0.003911
     8  O   -0.079746   8.359486  -0.097345   0.219759
     9  H   -0.065388  -0.097345   0.665191   0.002752
    10  H    0.003911   0.219759   0.002752   0.376474
 Mulliken atomic charges:
              1
     1  C    0.343510
     2  O   -0.372827
     3  O   -0.539385
     4  H    0.149924
     5  H    0.387434
     6  C    0.367958
     7  O   -0.364950
     8  O   -0.524142
     9  H    0.154416
    10  H    0.398062
 Sum of Mulliken atomic charges =   0.00000
 Mulliken charges with hydrogens summed into heavy atoms:
              1
     1  C    0.493435
     2  O   -0.372827
     3  O   -0.151951
     6  C    0.522373
     7  O   -0.364950
     8  O   -0.126080
 Sum of Mulliken charges with hydrogens summed into heavy atoms =   0.00000
 Electronic spatial extent (au):  <R**2>=            960.9602
 Charge=              0.0000 electrons
 Dipole moment (field-independent basis, Debye):
    X=             -8.9533    Y=             -0.6561    Z=              0.6487  Tot=              9.0007
 Quadrupole moment (field-independent basis, Debye-Ang):
   XX=            -31.2821   YY=            -35.9620   ZZ=            -34.1770
   XY=              6.2485   XZ=             -1.3639   YZ=              0.2512
 Traceless Quadrupole moment (field-independent basis, Debye-Ang):
   XX=              2.5250   YY=             -2.1550   ZZ=             -0.3700
   XY=              6.2485   XZ=             -1.3639   YZ=              0.2512
 Octapole moment (field-independent basis, Debye-Ang**2):
  XXX=           -120.4773  YYY=             -7.3164  ZZZ=              0.1266  XYY=             -8.7627
  XXY=            -13.2955  XXZ=              5.0273  XZZ=             -1.2972  YZZ=              0.1246
  YYZ=             -1.5402  XYZ=              1.8060
 Hexadecapole moment (field-independent basis, Debye-Ang**3):
 XXXX=           -916.4393 YYYY=           -141.7753 ZZZZ=            -45.7375 XXXY=             40.1948
 XXXZ=             13.6092 YYYX=             25.9373 YYYZ=              0.8617 ZZZX=             -0.0148
 ZZZY=              0.2437 XXYY=           -158.8684 XXZZ=           -163.5194 YYZZ=            -31.4464
 XXYZ=              9.5916 YYXZ=              1.1095 ZZXY=              1.2550
 N-N= 2.136439867061D+02 E-N=-1.319775845577D+03  KE= 3.772633548172D+02
 Calling FoFJK, ICntrl=      2127 FMM=F ISym2X=0 I1Cent= 0 IOpClX= 0 NMat=1 NMatS=1 NMatT=0.
 ***** Axes restored to original set *****
 -------------------------------------------------------------------
 Center     Atomic                   Forces (Hartrees/Bohr)
 Number     Number              X              Y              Z
 -------------------------------------------------------------------
      1        6           0.007582804   -0.001572284   -0.000536740
      2        8          -0.005737817    0.000425503   -0.000316989
      3        8          -0.001098025    0.000077681    0.001074861
      4        1          -0.000488499    0.002000225    0.001481314
      5        1           0.000045578   -0.001235083   -0.003699013
      6        6           0.009885868    0.003059793    0.000179915
      7        8          -0.006167745    0.000305630    0.001024111
      8        8          -0.002093530   -0.003743142    0.002585778
      9        1          -0.001217352   -0.000701865   -0.001258103
     10        1          -0.000711281    0.001383542   -0.000535134
 -------------------------------------------------------------------
 Cartesian Forces:  Max     0.009885868 RMS     0.003136488

 GradGradGradGradGradGradGradGradGradGradGradGradGradGradGradGradGradGrad
 Berny optimization.
 Internal  Forces:  Max     0.005661873 RMS     0.001441008
 Search for a local minimum.
 Step number   1 out of a maximum of   57
 All quantities printed in internal units (Hartrees-Bohrs-Radians)
 Mixed Optimization -- RFO/linear search
 Second derivative matrix not updated -- first step.
     Eigenvalues ---    0.00567   0.01086   0.01246   0.01680   0.02003
     Eigenvalues ---    0.02310   0.03244   0.03359   0.03970   0.05820
     Eigenvalues ---    0.08082   0.09638   0.11575   0.15625   0.17793
     Eigenvalues ---    0.21971   0.32059   0.33637   0.45986   0.47294
     Eigenvalues ---    0.49324   0.51564   0.87598   0.959601000.00000
     Eigenvalues --- 1000.000001000.000001000.000001000.000001000.00000
     Eigenvalues --- 1000.000001000.000001000.000001000.000001000.00000
     Eigenvalues --- 1000.000001000.000001000.000001000.000001000.00000
     Eigenvalues --- 1000.000001000.000001000.000001000.000001000.00000
     Eigenvalues --- 1000.000001000.00000
 RFO step:  Lambda=-7.42314976D-04 EMin= 5.67076942D-03
 Linear search not attempted -- first point.
 Iteration  1 RMS(Cart)=  0.01964269 RMS(Int)=  0.00053873
 Iteration  2 RMS(Cart)=  0.00043747 RMS(Int)=  0.00033706
 Iteration  3 RMS(Cart)=  0.00000016 RMS(Int)=  0.00033706
 Variable       Old X    -DE/DX   Delta X   Delta X   Delta X     New X
                                 (Linear)    (Quad)   (Total)
    R1        2.30302   0.00566   0.00000   0.00590   0.00590   2.30891
    R2        2.60211  -0.00149   0.00000  -0.00382  -0.00388   2.59823
    R3        2.07947  -0.00265   0.00000  -0.00782  -0.00789   2.07158
    R4        1.85019   0.00017   0.00000  -0.00033  -0.00031   1.84989
    R5        4.90523  -0.00046   0.00000  -0.00383  -0.00383   4.90139
    R6        5.30966   0.00262   0.00000   0.03337   0.03304   5.34270
    R7        4.77461  -0.00181   0.00000  -0.00856  -0.00854   4.76607
    R8        4.96554  -0.00145   0.00000  -0.05784  -0.05754   4.90801
    R9        2.30301   0.00361   0.00000   0.00458   0.00459   2.30761
   R10        2.60211  -0.00185   0.00000  -0.00407  -0.00391   2.59820
   R11        2.07948  -0.00142   0.00000  -0.00422  -0.00422   2.07526
   R12        1.85019   0.00007   0.00000   0.00014   0.00014   1.85033
    A1        2.13040  -0.00110   0.00000  -0.00484  -0.00485   2.12556
    A2        2.16161   0.00136   0.00000   0.00772   0.00772   2.16933
    A3        1.99117  -0.00026   0.00000  -0.00288  -0.00298   1.98819
    A4        1.97073   0.00009   0.00000  -0.00320  -0.00317   1.96757
    A5        2.19459   0.00071   0.00000   0.00635   0.00633   2.20092
    A6        2.78845   0.00045   0.00000   0.00253   0.00235   2.79080
    A7        2.36305  -0.00006   0.00000   0.00556   0.00548   2.36853
    A8        2.69480   0.00045   0.00000   0.01078   0.01121   2.70601
    A9        0.91229  -0.00002   0.00000   0.00177   0.00148   0.91377
   A10        2.56223   0.00109   0.00000   0.01137   0.01142   2.57365
   A11        2.13041  -0.00249   0.00000  -0.01991  -0.02065   2.10976
   A12        2.16161   0.00093   0.00000   0.00432   0.00411   2.16572
   A13        1.99117   0.00157   0.00000   0.01559   0.01530   2.00647
   A14        0.89166  -0.00046   0.00000  -0.00301  -0.00305   0.88861
   A15        2.38423   0.00090   0.00000   0.01701   0.01673   2.40095
   A16        2.47724   0.00003   0.00000   0.00047  -0.00098   2.47626
   A17        1.97073  -0.00095   0.00000   0.01531   0.01514   1.98587
    D1        3.14159   0.00000   0.00000  -0.00277  -0.00274   3.13886
    D2        0.00000   0.00019   0.00000   0.01255   0.01265   0.01264
    D3       -3.01992   0.00003   0.00000  -0.00745  -0.00741  -3.02734
    D4        0.12167  -0.00017   0.00000  -0.02309  -0.02324   0.09843
    D5        0.14094   0.00025   0.00000   0.01076   0.01091   0.15185
    D6       -0.14462  -0.00012   0.00000   0.00402   0.00394  -0.14067
    D7        1.52560   0.00026   0.00000   0.03412   0.03445   1.56005
    D8       -0.12211   0.00003   0.00000   0.01717   0.01729  -0.10482
    D9       -0.68444  -0.00010   0.00000   0.01506   0.01485  -0.66959
   D10       -2.44266   0.00068   0.00000   0.00404   0.00407  -2.43859
   D11        0.14847  -0.00005   0.00000  -0.01045  -0.01043   0.13804
   D12       -2.41840  -0.00067   0.00000  -0.02785  -0.02846  -2.44685
   D13        1.84942  -0.00127   0.00000  -0.07451  -0.07437   1.77505
   D14       -2.37547  -0.00133   0.00000  -0.05562  -0.05548  -2.43095
   D15       -0.22529   0.00161   0.00000   0.06328   0.06339  -0.16191
   D16        2.91630   0.00047   0.00000   0.00665   0.00718   2.92348
   D17       -3.14159  -0.00113   0.00000  -0.03055  -0.02978   3.11182
   D18        0.00000  -0.00009   0.00000   0.02096   0.02157   0.02157
         Item               Value     Threshold  Converged?
 Maximum Force            0.005662     0.000450     NO 
 RMS     Force            0.001441     0.000300     NO 
 Maximum Displacement     0.048975     0.001800     NO 
 RMS     Displacement     0.019802     0.001200     NO 
 Predicted change in Energy=-3.770225D-04
 GradGradGradGradGradGradGradGradGradGradGradGradGradGradGradGradGradGrad

                          Input orientation:                          
 ---------------------------------------------------------------------
 Center     Atomic      Atomic             Coordinates (Angstroms)
 Number     Number       Type             X           Y           Z
 ---------------------------------------------------------------------
      1          6           0        0.183810   -0.315824   -0.218283
      2          8           0       -1.018458   -0.403357   -0.417642
      3          8           0        0.717800    0.682707    0.561590
      4          1           0        0.928579   -1.014021   -0.617748
      5          1           0        1.692366    0.625773    0.634121
      6          6           0        4.345644   -0.222864    0.151232
      7          8           0        3.459446   -1.038342   -0.050800
      8          8           0        4.139661    1.115994   -0.084146
      9          1           0        5.328513   -0.473598    0.572066
     10          1           0        4.909504    1.678913    0.137673
 ---------------------------------------------------------------------
                    Distance matrix (angstroms):
                    1          2          3          4          5
     1  C    0.000000
     2  O    1.221824   0.000000
     3  O    1.374923   2.270027   0.000000
     4  H    1.096236   2.050343   2.077054   0.000000
     5  H    1.972040   3.084458   0.978918   2.199881   0.000000
     6  C    4.179240   5.397202   3.761609   3.590765   2.827234
     7  O    3.358553   4.537555   3.294488   2.593706   2.522096
     8  O    4.209140   5.387564   3.509109   3.890083   2.597206
     9  H    5.207449   6.424057   4.753507   4.589895   3.799216
    10  H    5.141777   6.307532   4.329262   4.865215   3.421336
                    6          7          8          9         10
     6  C    0.000000
     7  O    1.221134   0.000000
     8  O    1.374908   2.259417   0.000000
     9  H    1.098181   2.049466   2.090643   0.000000
    10  H    1.983653   3.085720   0.979152   2.235525   0.000000
 Stoichiometry    C2H4O4
 Framework group  C1[X(C2H4O4)]
 Deg. of freedom    24
 Full point group                 C1      NOp   1
 Largest Abelian subgroup         C1      NOp   1
 Largest concise Abelian subgroup C1      NOp   1
                         Standard orientation:                         
 ---------------------------------------------------------------------
 Center     Atomic      Atomic             Coordinates (Angstroms)
 Number     Number       Type             X           Y           Z
 ---------------------------------------------------------------------
      1          6           0       -1.894882   -0.201733   -0.100755
      2          8           0       -3.108414   -0.222499   -0.241333
      3          8           0       -1.248750    0.876216    0.456878
      4          1           0       -1.226232   -1.023229   -0.383215
      5          1           0       -0.279186    0.751200    0.507841
      6          6           0        2.274469   -0.395507    0.111406
      7          8           0        1.319169   -1.156009    0.097005
      8          8           0        2.161917    0.888045   -0.368382
      9          1           0        3.253801   -0.645565    0.540801
     10          1           0        2.982712    1.415009   -0.282679
 ---------------------------------------------------------------------
 Rotational constants (GHZ):      8.2717223      1.2151154      1.0945390
 Standard basis: 6-31G (6D, 7F)
 There are    62 symmetry adapted basis functions of A   symmetry.
 Integral buffers will be    131072 words long.
 Raffenetti 2 integral format.
 Two-electron integral symmetry is turned on.
    62 basis functions,   148 primitive gaussians,    62 cartesian basis functions
    24 alpha electrons       24 beta electrons
       nuclear repulsion energy       213.7845019454 Hartrees.
 NAtoms=   10 NActive=   10 NUniq=   10 SFac= 7.50D-01 NAtFMM=   80 NAOKFM=F Big=F
 One-electron integrals computed using PRISM.
 NBasis=    62 RedAO= T  NBF=    62
 NBsUse=    62 1.00D-06 NBFU=    62
 Initial guess read from the read-write file.
 B after Tr=     0.000000    0.000000    0.000000
         Rot=    1.000000    0.000000    0.000000    0.000000 Ang=   0.00 deg.
 Initial guess orbital symmetries:
       Occupied  (A) (A) (A) (A) (A) (A) (A) (A) (A) (A) (A) (A)
                 (A) (A) (A) (A) (A) (A) (A) (A) (A) (A) (A) (A)
       Virtual   (A) (A) (A) (A) (A) (A) (A) (A) (A) (A) (A) (A)
                 (A) (A) (A) (A) (A) (A) (A) (A) (A) (A) (A) (A)
                 (A) (A) (A) (A) (A) (A) (A) (A) (A) (A) (A) (A)
                 (A) (A)
 Harris functional with IExCor=  402 diagonalized for initial guess.
 ExpMin= 1.61D-01 ExpMax= 5.48D+03 ExpMxC= 8.25D+02 IAcc=1 IRadAn=         1 AccDes= 0.00D+00
 HarFok:  IExCor=  402 AccDes= 0.00D+00 IRadAn=         1 IDoV= 1
 ScaDFX=  1.000000  1.000000  1.000000  1.000000
 FoFCou: FMM=F IPFlag=           0 FMFlag=      100000 FMFlg1=           0
         NFxFlg=           0 DoJE=T BraDBF=F KetDBF=T FulRan=T
         Omega=  0.000000  0.000000  1.000000  0.000000  0.000000 ICntrl=     500 IOpCl=  0
         NMat0=    1 NMatS0=    1 NMatT0=    0 NMatD0=    1 NMtDS0=    0 NMtDT0=    0
         I1Cent=           4 NGrid=           0.
 Petite list used in FoFCou.
 Requested convergence on RMS density matrix=1.00D-08 within 128 cycles.
 Requested convergence on MAX density matrix=1.00D-06.
 Requested convergence on             energy=1.00D-06.
 No special actions if energy rises.
 Keep R1 ints in memory in canonical form, NReq=2903068.
 Integral accuracy reduced to 1.0D-05 until final iterations.
 Initial convergence to 1.0D-05 achieved.  Increase integral accuracy.
 SCF Done:  E(RB3LYP) =  -379.365532483     A.U. after   15 cycles
             Convg  =    0.8797D-08             -V/T =  2.0056
 Calling FoFJK, ICntrl=      2127 FMM=F ISym2X=0 I1Cent= 0 IOpClX= 0 NMat=1 NMatS=1 NMatT=0.
 ***** Axes restored to original set *****
 -------------------------------------------------------------------
 Center     Atomic                   Forces (Hartrees/Bohr)
 Number     Number              X              Y              Z
 -------------------------------------------------------------------
      1        6           0.000841946   -0.000758085    0.001717649
      2        8          -0.001210247    0.000077184   -0.000906265
      3        8          -0.000220372    0.000936831    0.001150234
      4        1           0.000504937    0.000313079   -0.000543568
      5        1           0.000712917   -0.000896918   -0.003451787
      6        6           0.000795831    0.002110483    0.003931356
      7        8          -0.001851129   -0.000473414    0.000150319
      8        8           0.000230033   -0.001387245    0.001616488
      9        1           0.000498692   -0.000505592   -0.003032040
     10        1          -0.000302608    0.000583677   -0.000632386
 -------------------------------------------------------------------
 Cartesian Forces:  Max     0.003931356 RMS     0.001437448

 GradGradGradGradGradGradGradGradGradGradGradGradGradGradGradGradGradGrad
 Berny optimization.
 Using GEDIIS/GDIIS optimizer.
 Internal  Forces:  Max     0.002240052 RMS     0.000692365
 Search for a local minimum.
 Step number   2 out of a maximum of   57
 All quantities printed in internal units (Hartrees-Bohrs-Radians)
 Mixed Optimization -- En-DIIS/RFO-DIIS
 Update second derivatives using D2CorX and points    1    2
 DE= -4.77D-04 DEPred=-3.77D-04 R= 1.27D+00
 SS=  1.41D+00  RLast= 1.54D-01 DXNew= 5.0454D-01 4.6337D-01
 Trust test= 1.27D+00 RLast= 1.54D-01 DXMaxT set to 4.63D-01
 Use linear search instead of GDIIS.
     Eigenvalues ---    0.00561   0.00799   0.01259   0.01477   0.02000
     Eigenvalues ---    0.02297   0.02927   0.03216   0.04008   0.06333
     Eigenvalues ---    0.07607   0.10608   0.11267   0.16409   0.17901
     Eigenvalues ---    0.22504   0.32279   0.33515   0.45760   0.47417
     Eigenvalues ---    0.49309   0.51566   0.86596   0.953061000.00000
     Eigenvalues --- 1000.000001000.000001000.000001000.000001000.00000
     Eigenvalues --- 1000.000001000.000001000.000001000.000001000.00000
     Eigenvalues --- 1000.000001000.000001000.000001000.000001000.00000
     Eigenvalues --- 1000.000001000.000001000.000001000.000001000.00000
     Eigenvalues --- 1000.000001000.00000
 RFO step:  Lambda=-5.80760307D-04 EMin= 5.60637382D-03
 Quartic linear search produced a step of  0.37949.
 Iteration  1 RMS(Cart)=  0.02970509 RMS(Int)=  0.00124414
 Iteration  2 RMS(Cart)=  0.00095795 RMS(Int)=  0.00079398
 Iteration  3 RMS(Cart)=  0.00000099 RMS(Int)=  0.00079398
 Variable       Old X    -DE/DX   Delta X   Delta X   Delta X     New X
                                 (Linear)    (Quad)   (Total)
    R1        2.30891   0.00133   0.00224   0.00429   0.00652   2.31544
    R2        2.59823  -0.00004  -0.00147  -0.00161  -0.00303   2.59520
    R3        2.07158  -0.00017  -0.00299  -0.00324  -0.00622   2.06536
    R4        1.84989   0.00044  -0.00012   0.00068   0.00060   1.85049
    R5        4.90139  -0.00037  -0.00145  -0.01899  -0.02048   4.88091
    R6        5.34270   0.00032   0.01254   0.00487   0.01676   5.35946
    R7        4.76607  -0.00033  -0.00324  -0.00970  -0.01317   4.75290
    R8        4.90801  -0.00047  -0.02183  -0.05946  -0.08038   4.82762
    R9        2.30761   0.00124   0.00174   0.00382   0.00537   2.31298
   R10        2.59820  -0.00097  -0.00148  -0.00412  -0.00541   2.59279
   R11        2.07526  -0.00060  -0.00160  -0.00413  -0.00573   2.06953
   R12        1.85033  -0.00005   0.00005  -0.00006  -0.00001   1.85032
    A1        2.12556   0.00044  -0.00184   0.00131  -0.00260   2.12296
    A2        2.16933  -0.00018   0.00293   0.00294   0.00380   2.17312
    A3        1.98819  -0.00025  -0.00113  -0.00261  -0.00508   1.98311
    A4        1.96757   0.00006  -0.00120  -0.00501  -0.00544   1.96213
    A5        2.20092   0.00030   0.00240   0.00406   0.00704   2.20796
    A6        2.79080   0.00016   0.00089   0.00519   0.00540   2.79621
    A7        2.36853  -0.00014   0.00208   0.00298   0.00452   2.37305
    A8        2.70601   0.00055   0.00425   0.01542   0.02033   2.72633
    A9        0.91377   0.00007   0.00056   0.00364   0.00379   0.91756
   A10        2.57365   0.00224   0.00433   0.04380   0.04829   2.62195
   A11        2.10976  -0.00022  -0.00784  -0.01297  -0.02150   2.08826
   A12        2.16572   0.00030   0.00156   0.00406   0.00531   2.17103
   A13        2.00647   0.00001   0.00581   0.00935   0.01565   2.02212
   A14        0.88861   0.00000  -0.00116  -0.00096  -0.00223   0.88638
   A15        2.40095   0.00019   0.00635   0.00956   0.01544   2.41639
   A16        2.47626   0.00079  -0.00037   0.00568   0.00256   2.47883
   A17        1.98587  -0.00026   0.00575   0.01851   0.02332   2.00919
    D1        3.13886   0.00069  -0.00104   0.07494   0.07378  -3.07055
    D2        0.01264  -0.00033   0.00480  -0.03865  -0.03338  -0.02074
    D3       -3.02734  -0.00061  -0.00281  -0.07416  -0.07692  -3.10426
    D4        0.09843   0.00045  -0.00882   0.04270   0.03374   0.13217
    D5        0.15185  -0.00016   0.00414   0.01222   0.01620   0.16806
    D6       -0.14067   0.00013   0.00150   0.02096   0.02229  -0.11839
    D7        1.56005   0.00072   0.01307   0.05797   0.07186   1.63191
    D8       -0.10482  -0.00031   0.00656  -0.02521  -0.01870  -0.12353
    D9       -0.66959   0.00023   0.00564  -0.01163  -0.00630  -0.67589
   D10       -2.43859   0.00032   0.00154   0.01502   0.01612  -2.42247
   D11        0.13804   0.00003  -0.00396  -0.00198  -0.00599   0.13205
   D12       -2.44685  -0.00079  -0.01080  -0.02736  -0.03926  -2.48611
   D13        1.77505  -0.00069  -0.02822  -0.07897  -0.10716   1.66789
   D14       -2.43095  -0.00071  -0.02105  -0.05967  -0.08043  -2.51137
   D15       -0.16191   0.00022   0.02406   0.03020   0.05444  -0.10746
   D16        2.92348   0.00221   0.00272   0.04033   0.04378   2.96726
   D17        3.11182   0.00052  -0.01130  -0.00229  -0.01222   3.09960
   D18        0.02157  -0.00131   0.00819  -0.01146  -0.00225   0.01932
         Item               Value     Threshold  Converged?
 Maximum Force            0.002240     0.000450     NO 
 RMS     Force            0.000692     0.000300     NO 
 Maximum Displacement     0.087187     0.001800     NO 
 RMS     Displacement     0.029959     0.001200     NO 
 Predicted change in Energy=-3.493066D-04
 GradGradGradGradGradGradGradGradGradGradGradGradGradGradGradGradGradGrad

                          Input orientation:                          
 ---------------------------------------------------------------------
 Center     Atomic      Atomic             Coordinates (Angstroms)
 Number     Number       Type             X           Y           Z
 ---------------------------------------------------------------------
      1          6           0        0.184897   -0.332689   -0.190801
      2          8           0       -1.012423   -0.383612   -0.446013
      3          8           0        0.722519    0.698575    0.539587
      4          1           0        0.931882   -1.026984   -0.583852
      5          1           0        1.697432    0.638463    0.609124
      6          6           0        4.357177   -0.231176    0.147649
      7          8           0        3.456387   -1.038781   -0.038018
      8          8           0        4.121133    1.106000   -0.049217
      9          1           0        5.351787   -0.490022    0.525928
     10          1           0        4.876071    1.695606    0.153674
 ---------------------------------------------------------------------
                    Distance matrix (angstroms):
                    1          2          3          4          5
     1  C    0.000000
     2  O    1.225276   0.000000
     3  O    1.373320   2.269926   0.000000
     4  H    1.092943   2.052620   2.069663   0.000000
     5  H    1.967430   3.082413   0.979237   2.187002   0.000000
     6  C    4.187216   5.404469   3.772107   3.591804   2.836102
     7  O    3.350308   4.534972   3.290299   2.582867   2.515127
     8  O    4.193308   5.360018   3.473221   3.873859   2.554669
     9  H    5.218737   6.438880   4.779443   4.588628   3.825534
    10  H    5.122476   6.273526   4.288938   4.849028   3.380640
                    6          7          8          9         10
     6  C    0.000000
     7  O    1.223977   0.000000
     8  O    1.372048   2.245462   0.000000
     9  H    1.095146   2.052246   2.095850   0.000000
    10  H    1.995439   3.086927   0.979147   2.267564   0.000000
 Stoichiometry    C2H4O4
 Framework group  C1[X(C2H4O4)]
 Deg. of freedom    24
 Full point group                 C1      NOp   1
 Largest Abelian subgroup         C1      NOp   1
 Largest concise Abelian subgroup C1      NOp   1
                         Standard orientation:                         
 ---------------------------------------------------------------------
 Center     Atomic      Atomic             Coordinates (Angstroms)
 Number     Number       Type             X           Y           Z
 ---------------------------------------------------------------------
      1          6           0       -1.893408   -0.221065   -0.060195
      2          8           0       -3.103130   -0.220955   -0.254812
      3          8           0       -1.243963    0.881343    0.438731
      4          1           0       -1.220983   -1.035319   -0.341900
      5          1           0       -0.273710    0.755924    0.480962
      6          6           0        2.287253   -0.398962    0.092136
      7          8           0        1.321396   -1.150757    0.098769
      8          8           0        2.139169    0.892410   -0.347118
      9          1           0        3.279057   -0.662708    0.474377
     10          1           0        2.944795    1.445938   -0.289645
 ---------------------------------------------------------------------
 Rotational constants (GHZ):      8.3120390      1.2217747      1.0976122
 Standard basis: 6-31G (6D, 7F)
 There are    62 symmetry adapted basis functions of A   symmetry.
 Integral buffers will be    131072 words long.
 Raffenetti 2 integral format.
 Two-electron integral symmetry is turned on.
    62 basis functions,   148 primitive gaussians,    62 cartesian basis functions
    24 alpha electrons       24 beta electrons
       nuclear repulsion energy       214.0419738719 Hartrees.
 NAtoms=   10 NActive=   10 NUniq=   10 SFac= 7.50D-01 NAtFMM=   80 NAOKFM=F Big=F
 One-electron integrals computed using PRISM.
 NBasis=    62 RedAO= T  NBF=    62
 NBsUse=    62 1.00D-06 NBFU=    62
 Initial guess read from the read-write file.
 B after Tr=     0.000000    0.000000    0.000000
         Rot=    1.000000    0.000000    0.000000    0.000000 Ang=   0.00 deg.
 Initial guess orbital symmetries:
       Occupied  (A) (A) (A) (A) (A) (A) (A) (A) (A) (A) (A) (A)
                 (A) (A) (A) (A) (A) (A) (A) (A) (A) (A) (A) (A)
       Virtual   (A) (A) (A) (A) (A) (A) (A) (A) (A) (A) (A) (A)
                 (A) (A) (A) (A) (A) (A) (A) (A) (A) (A) (A) (A)
                 (A) (A) (A) (A) (A) (A) (A) (A) (A) (A) (A) (A)
                 (A) (A)
 Harris functional with IExCor=  402 diagonalized for initial guess.
 ExpMin= 1.61D-01 ExpMax= 5.48D+03 ExpMxC= 8.25D+02 IAcc=1 IRadAn=         1 AccDes= 0.00D+00
 HarFok:  IExCor=  402 AccDes= 0.00D+00 IRadAn=         1 IDoV= 1
 ScaDFX=  1.000000  1.000000  1.000000  1.000000
 FoFCou: FMM=F IPFlag=           0 FMFlag=      100000 FMFlg1=           0
         NFxFlg=           0 DoJE=T BraDBF=F KetDBF=T FulRan=T
         Omega=  0.000000  0.000000  1.000000  0.000000  0.000000 ICntrl=     500 IOpCl=  0
         NMat0=    1 NMatS0=    1 NMatT0=    0 NMatD0=    1 NMtDS0=    0 NMtDT0=    0
         I1Cent=           4 NGrid=           0.
 Petite list used in FoFCou.
 Requested convergence on RMS density matrix=1.00D-08 within 128 cycles.
 Requested convergence on MAX density matrix=1.00D-06.
 Requested convergence on             energy=1.00D-06.
 No special actions if energy rises.
 Keep R1 ints in memory in canonical form, NReq=2903068.
 Integral accuracy reduced to 1.0D-05 until final iterations.
 Initial convergence to 1.0D-05 achieved.  Increase integral accuracy.
 SCF Done:  E(RB3LYP) =  -379.365483162     A.U. after   13 cycles
             Convg  =    0.8466D-08             -V/T =  2.0056
 Calling FoFJK, ICntrl=      2127 FMM=F ISym2X=0 I1Cent= 0 IOpClX= 0 NMat=1 NMatS=1 NMatT=0.
 ***** Axes restored to original set *****
 -------------------------------------------------------------------
 Center     Atomic                   Forces (Hartrees/Bohr)
 Number     Number              X              Y              Z
 -------------------------------------------------------------------
      1        6          -0.003588414    0.008375350   -0.009714314
      2        8           0.002616408   -0.003294379    0.003981355
      3        8           0.000208686   -0.000264274    0.003924029
      4        1           0.000714274   -0.004247209    0.002146609
      5        1           0.000965132   -0.000909856   -0.002389337
      6        6          -0.006698710    0.000265757    0.003337855
      7        8           0.002287880   -0.000925857    0.000752919
      8        8           0.001314149    0.001963195    0.001422785
      9        1           0.001848972   -0.000261687   -0.002987771
     10        1           0.000331623   -0.000701040   -0.000474132
 -------------------------------------------------------------------
 Cartesian Forces:  Max     0.009714314 RMS     0.003369798

 GradGradGradGradGradGradGradGradGradGradGradGradGradGradGradGradGradGrad
 Berny optimization.
 Using GEDIIS/GDIIS optimizer.
 Internal  Forces:  Max     0.004590953 RMS     0.001568500
 Search for a local minimum.
 Step number   3 out of a maximum of   57
 All quantities printed in internal units (Hartrees-Bohrs-Radians)
 Mixed Optimization -- RFO/linear search
 Update second derivatives using D2CorX and points    1    3    2
 DE=  4.93D-05 DEPred=-3.49D-04 R=-1.41D-01
 Trust test=-1.41D-01 RLast= 2.38D-01 DXMaxT set to 2.32D-01
 Use linear search instead of GDIIS.
 Quartic linear search produced a step of -0.53478.
 Iteration  1 RMS(Cart)=  0.01609893 RMS(Int)=  0.00032975
 Iteration  2 RMS(Cart)=  0.00026403 RMS(Int)=  0.00017596
 Iteration  3 RMS(Cart)=  0.00000009 RMS(Int)=  0.00017596
 Variable       Old X    -DE/DX   Delta X   Delta X   Delta X     New X
                                 (Linear)    (Quad)   (Total)
    R1        2.31544  -0.00325  -0.00349   0.00000  -0.00349   2.31195
    R2        2.59520   0.00111   0.00162   0.00000   0.00160   2.59680
    R3        2.06536   0.00190   0.00333   0.00000   0.00332   2.06868
    R4        1.85049   0.00035  -0.00032   0.00000  -0.00033   1.85016
    R5        4.88091  -0.00018   0.01095   0.00000   0.01096   4.89187
    R6        5.35946  -0.00159  -0.00896   0.00000  -0.00884   5.35062
    R7        4.75290   0.00080   0.00704   0.00000   0.00710   4.76000
    R8        4.82762   0.00036   0.04299   0.00000   0.04279   4.87042
    R9        2.31298  -0.00136  -0.00287   0.00000  -0.00282   2.31016
   R10        2.59279   0.00024   0.00289   0.00000   0.00286   2.59566
   R11        2.06953   0.00071   0.00307   0.00000   0.00307   2.07259
   R12        1.85032  -0.00026   0.00000   0.00000   0.00000   1.85033
    A1        2.12296   0.00144   0.00139   0.00000   0.00190   2.12486
    A2        2.17312  -0.00084  -0.00203   0.00000  -0.00152   2.17161
    A3        1.98311   0.00001   0.00271   0.00000   0.00304   1.98615
    A4        1.96213  -0.00011   0.00291   0.00000   0.00271   1.96484
    A5        2.20796  -0.00008  -0.00376   0.00000  -0.00391   2.20405
    A6        2.79621  -0.00011  -0.00289   0.00000  -0.00273   2.79347
    A7        2.37305   0.00003  -0.00242   0.00000  -0.00229   2.37077
    A8        2.72633   0.00042  -0.01087   0.00000  -0.01100   2.71533
    A9        0.91756   0.00029  -0.00203   0.00000  -0.00195   0.91561
   A10        2.62195   0.00224  -0.02583   0.00000  -0.02587   2.59608
   A11        2.08826   0.00221   0.01150   0.00000   0.01161   2.09986
   A12        2.17103  -0.00086  -0.00284   0.00000  -0.00279   2.16824
   A13        2.02212  -0.00123  -0.00837   0.00000  -0.00852   2.01360
   A14        0.88638   0.00037   0.00119   0.00000   0.00122   0.88760
   A15        2.41639  -0.00045  -0.00826   0.00000  -0.00817   2.40822
   A16        2.47883   0.00183  -0.00137   0.00000  -0.00082   2.47801
   A17        2.00919   0.00006  -0.01247   0.00000  -0.01226   1.99692
    D1       -3.07055  -0.00459  -0.03945   0.00000  -0.03943  -3.10999
    D2       -0.02074   0.00222   0.01785   0.00000   0.01775  -0.00299
    D3       -3.10426   0.00450   0.04113   0.00000   0.04114  -3.06312
    D4        0.13217  -0.00268  -0.01804   0.00000  -0.01803   0.11414
    D5        0.16806  -0.00094  -0.00867   0.00000  -0.00861   0.15945
    D6       -0.11839  -0.00095  -0.01192   0.00000  -0.01189  -0.13028
    D7        1.63191   0.00058  -0.03843   0.00000  -0.03860   1.59331
    D8       -0.12353   0.00169   0.01000   0.00000   0.01003  -0.11349
    D9       -0.67589   0.00191   0.00337   0.00000   0.00343  -0.67246
   D10       -2.42247  -0.00027  -0.00862   0.00000  -0.00851  -2.43098
   D11        0.13205  -0.00009   0.00320   0.00000   0.00322   0.13527
   D12       -2.48611  -0.00092   0.02100   0.00000   0.02122  -2.46489
   D13        1.66789  -0.00035   0.05731   0.00000   0.05732   1.72521
   D14       -2.51137   0.00054   0.04301   0.00000   0.04297  -2.46841
   D15       -0.10746   0.00094  -0.02911   0.00000  -0.02916  -0.13662
   D16        2.96726   0.00304  -0.02341   0.00000  -0.02355   2.94371
   D17        3.09960   0.00083   0.00654   0.00000   0.00627   3.10587
   D18        0.01932  -0.00109   0.00120   0.00000   0.00100   0.02032
         Item               Value     Threshold  Converged?
 Maximum Force            0.004591     0.000450     NO 
 RMS     Force            0.001568     0.000300     NO 
 Maximum Displacement     0.047025     0.001800     NO 
 RMS     Displacement     0.016059     0.001200     NO 
 Predicted change in Energy=-1.535317D-04
 GradGradGradGradGradGradGradGradGradGradGradGradGradGradGradGradGradGrad

                          Input orientation:                          
 ---------------------------------------------------------------------
 Center     Atomic      Atomic             Coordinates (Angstroms)
 Number     Number       Type             X           Y           Z
 ---------------------------------------------------------------------
      1          6           0        0.184390   -0.323834   -0.205625
      2          8           0       -1.016092   -0.393946   -0.430810
      3          8           0        0.719983    0.690165    0.551531
      4          1           0        0.930126   -1.020239   -0.602192
      5          1           0        1.694707    0.631649    0.622604
      6          6           0        4.351085   -0.226810    0.149665
      7          8           0        3.458035   -1.038635   -0.044929
      8          8           0        4.130997    1.111428   -0.067942
      9          1           0        5.339617   -0.481343    0.550813
     10          1           0        4.894014    1.686945    0.144945
 ---------------------------------------------------------------------
                    Distance matrix (angstroms):
                    1          2          3          4          5
     1  C    0.000000
     2  O    1.223430   0.000000
     3  O    1.374168   2.270296   0.000000
     4  H    1.094700   2.051677   2.073818   0.000000
     5  H    1.969763   3.083821   0.979062   2.193956   0.000000
     6  C    4.182941   5.401062   3.766596   3.591348   2.831425
     7  O    3.354626   4.536776   3.292635   2.588668   2.518883
     8  O    4.201742   5.374974   3.492310   3.882654   2.577314
     9  H    5.212809   6.431661   4.765864   4.589492   3.811729
    10  H    5.132902   6.292133   4.310617   4.857928   3.402554
                    6          7          8          9         10
     6  C    0.000000
     7  O    1.222484   0.000000
     8  O    1.373562   2.253038   0.000000
     9  H    1.096769   2.050813   2.092975   0.000000
    10  H    1.989284   3.086563   0.979150   2.250504   0.000000
 Stoichiometry    C2H4O4
 Framework group  C1[X(C2H4O4)]
 Deg. of freedom    24
 Full point group                 C1      NOp   1
 Largest Abelian subgroup         C1      NOp   1
 Largest concise Abelian subgroup C1      NOp   1
                         Standard orientation:                         
 ---------------------------------------------------------------------
 Center     Atomic      Atomic             Coordinates (Angstroms)
 Number     Number       Type             X           Y           Z
 ---------------------------------------------------------------------
      1          6           0       -1.894153   -0.210984   -0.081958
      2          8           0       -3.106277   -0.221629   -0.247559
      3          8           0       -1.246440    0.878670    0.448570
      4          1           0       -1.223801   -1.029144   -0.364112
      5          1           0       -0.276559    0.753376    0.495422
      6          6           0        2.280567   -0.397159    0.102557
      7          8           0        1.320279   -1.153657    0.097795
      8          8           0        2.151278    0.890182   -0.358650
      9          1           0        3.265973   -0.653580    0.510142
     10          1           0        2.965183    1.429680   -0.286299
 ---------------------------------------------------------------------
 Rotational constants (GHZ):      8.2902323      1.2181251      1.0958650
 Standard basis: 6-31G (6D, 7F)
 There are    62 symmetry adapted basis functions of A   symmetry.
 Integral buffers will be    131072 words long.
 Raffenetti 2 integral format.
 Two-electron integral symmetry is turned on.
    62 basis functions,   148 primitive gaussians,    62 cartesian basis functions
    24 alpha electrons       24 beta electrons
       nuclear repulsion energy       213.8981933686 Hartrees.
 NAtoms=   10 NActive=   10 NUniq=   10 SFac= 7.50D-01 NAtFMM=   80 NAOKFM=F Big=F
 One-electron integrals computed using PRISM.
 NBasis=    62 RedAO= T  NBF=    62
 NBsUse=    62 1.00D-06 NBFU=    62
 Initial guess read from the read-write file.
 B after Tr=     0.000000    0.000000    0.000000
         Rot=    1.000000    0.000000    0.000000    0.000000 Ang=   0.00 deg.
 Initial guess orbital symmetries:
       Occupied  (A) (A) (A) (A) (A) (A) (A) (A) (A) (A) (A) (A)
                 (A) (A) (A) (A) (A) (A) (A) (A) (A) (A) (A) (A)
       Virtual   (A) (A) (A) (A) (A) (A) (A) (A) (A) (A) (A) (A)
                 (A) (A) (A) (A) (A) (A) (A) (A) (A) (A) (A) (A)
                 (A) (A) (A) (A) (A) (A) (A) (A) (A) (A) (A) (A)
                 (A) (A)
 Harris functional with IExCor=  402 diagonalized for initial guess.
 ExpMin= 1.61D-01 ExpMax= 5.48D+03 ExpMxC= 8.25D+02 IAcc=1 IRadAn=         1 AccDes= 0.00D+00
 HarFok:  IExCor=  402 AccDes= 0.00D+00 IRadAn=         1 IDoV= 1
 ScaDFX=  1.000000  1.000000  1.000000  1.000000
 FoFCou: FMM=F IPFlag=           0 FMFlag=      100000 FMFlg1=           0
         NFxFlg=           0 DoJE=T BraDBF=F KetDBF=T FulRan=T
         Omega=  0.000000  0.000000  1.000000  0.000000  0.000000 ICntrl=     500 IOpCl=  0
         NMat0=    1 NMatS0=    1 NMatT0=    0 NMatD0=    1 NMtDS0=    0 NMtDT0=    0
         I1Cent=           4 NGrid=           0.
 Petite list used in FoFCou.
 Requested convergence on RMS density matrix=1.00D-08 within 128 cycles.
 Requested convergence on MAX density matrix=1.00D-06.
 Requested convergence on             energy=1.00D-06.
 No special actions if energy rises.
 Keep R1 ints in memory in canonical form, NReq=2903068.
 Integral accuracy reduced to 1.0D-05 until final iterations.
 Initial convergence to 1.0D-05 achieved.  Increase integral accuracy.
 SCF Done:  E(RB3LYP) =  -379.365686022     A.U. after   13 cycles
             Convg  =    0.3210D-08             -V/T =  2.0056
 Calling FoFJK, ICntrl=      2127 FMM=F ISym2X=0 I1Cent= 0 IOpClX= 0 NMat=1 NMatS=1 NMatT=0.
 ***** Axes restored to original set *****
 -------------------------------------------------------------------
 Center     Atomic                   Forces (Hartrees/Bohr)
 Number     Number              X              Y              Z
 -------------------------------------------------------------------
      1        6          -0.001356175    0.003529820   -0.003529890
      2        8           0.000749604   -0.001460047    0.001341987
      3        8          -0.000046334    0.000293047    0.002383314
      4        1           0.000584637   -0.001792274    0.000714568
      5        1           0.000828381   -0.000902765   -0.002956823
      6        6          -0.002669571    0.001238497    0.003603268
      7        8           0.000103816   -0.000604190    0.000480069
      8        8           0.000700556    0.000149716    0.001514920
      9        1           0.001118994   -0.000406098   -0.003006107
     10        1          -0.000013908   -0.000045706   -0.000545307
 -------------------------------------------------------------------
 Cartesian Forces:  Max     0.003603268 RMS     0.001704330

 GradGradGradGradGradGradGradGradGradGradGradGradGradGradGradGradGradGrad
 Berny optimization.
 Using GEDIIS/GDIIS optimizer.
 Internal  Forces:  Max     0.002600622 RMS     0.000820703
 Search for a local minimum.
 Step number   4 out of a maximum of   57
 All quantities printed in internal units (Hartrees-Bohrs-Radians)
 Mixed Optimization -- En-DIIS/RFO-DIIS
 Update second derivatives using D2CorX and points    1    3    2    4
 Use linear search instead of GDIIS.
     Eigenvalues ---    0.00428   0.00726   0.01376   0.01903   0.02234
     Eigenvalues ---    0.02550   0.03187   0.03985   0.04963   0.07085
     Eigenvalues ---    0.07391   0.10171   0.11311   0.16698   0.17911
     Eigenvalues ---    0.22283   0.32452   0.33596   0.45666   0.47410
     Eigenvalues ---    0.49291   0.51570   0.87021   0.965071000.00000
     Eigenvalues --- 1000.000001000.000001000.000001000.000001000.00000
     Eigenvalues --- 1000.000001000.000001000.000001000.000001000.00000
     Eigenvalues --- 1000.000001000.000001000.000001000.000001000.00000
     Eigenvalues --- 1000.000001000.000001000.000001000.000001000.00000
     Eigenvalues --- 1000.000001000.00000
 RFO step:  Lambda=-9.59796509D-04 EMin= 4.28126312D-03
 Quartic linear search produced a step of  0.00105.
 Maximum step size (   0.232) exceeded in Quadratic search.
    -- Step size scaled by   0.692
 Iteration  1 RMS(Cart)=  0.03227796 RMS(Int)=  0.00116018
 Iteration  2 RMS(Cart)=  0.00096726 RMS(Int)=  0.00060953
 Iteration  3 RMS(Cart)=  0.00000046 RMS(Int)=  0.00060953
 Variable       Old X    -DE/DX   Delta X   Delta X   Delta X     New X
                                 (Linear)    (Quad)   (Total)
    R1        2.31195  -0.00090   0.00000   0.00504   0.00504   2.31699
    R2        2.59680   0.00043   0.00000  -0.00162  -0.00163   2.59518
    R3        2.06868   0.00078   0.00000  -0.00261  -0.00284   2.06584
    R4        1.85016   0.00038   0.00000   0.00095   0.00118   1.85134
    R5        4.89187  -0.00027  -0.00001  -0.02373  -0.02396   4.86792
    R6        5.35062  -0.00054   0.00001   0.00056   0.00004   5.35066
    R7        4.76000   0.00017  -0.00001  -0.01383  -0.01406   4.74594
    R8        4.87042  -0.00012  -0.00004  -0.09083  -0.08971   4.78071
    R9        2.31016  -0.00003   0.00000   0.00475   0.00442   2.31458
   R10        2.59566  -0.00044   0.00000  -0.00551  -0.00542   2.59023
   R11        2.07259   0.00000   0.00000  -0.00526  -0.00526   2.06733
   R12        1.85033  -0.00016   0.00000  -0.00024  -0.00024   1.85008
    A1        2.12486   0.00080   0.00000   0.00170   0.00160   2.12646
    A2        2.17161  -0.00054   0.00000   0.00128   0.00118   2.17279
    A3        1.98615  -0.00017   0.00000  -0.00211  -0.00225   1.98390
    A4        1.96484  -0.00002   0.00000  -0.00660  -0.00599   1.95885
    A5        2.20405   0.00015   0.00000   0.00766   0.00743   2.21148
    A6        2.79347   0.00004   0.00000   0.00744   0.00654   2.80002
    A7        2.37077  -0.00004   0.00000   0.00479   0.00394   2.37471
    A8        2.71533   0.00050   0.00001   0.02173   0.02225   2.73758
    A9        0.91561   0.00015   0.00000   0.00713   0.00681   0.92242
   A10        2.59608   0.00225   0.00002   0.07145   0.07150   2.66758
   A11        2.09986   0.00088  -0.00001  -0.01334  -0.01375   2.08612
   A12        2.16824  -0.00023   0.00000   0.00380   0.00270   2.17094
   A13        2.01360  -0.00055   0.00001   0.01047   0.01184   2.02544
   A14        0.88760   0.00014   0.00000  -0.00034  -0.00011   0.88749
   A15        2.40822  -0.00010   0.00001   0.01462   0.01441   2.42264
   A16        2.47801   0.00124   0.00000   0.00871   0.00677   2.48477
   A17        1.99692  -0.00011   0.00001   0.02340   0.02212   2.01905
    D1       -3.10999  -0.00179   0.00004  -0.01162  -0.01158  -3.12156
    D2       -0.00299   0.00086  -0.00002   0.01507   0.01505   0.01206
    D3       -3.06312   0.00176  -0.00004  -0.00132  -0.00136  -3.06447
    D4        0.11414  -0.00101   0.00002  -0.02884  -0.02881   0.08533
    D5        0.15945  -0.00052   0.00001  -0.00016  -0.00097   0.15848
    D6       -0.13028  -0.00037   0.00001   0.00670   0.00656  -0.12371
    D7        1.59331   0.00065   0.00004   0.06800   0.06881   1.66212
    D8       -0.11349   0.00061  -0.00001   0.02200   0.02194  -0.09155
    D9       -0.67246   0.00100   0.00000   0.05234   0.05231  -0.62015
   D10       -2.43098   0.00005   0.00001   0.01023   0.00909  -2.42189
   D11        0.13527  -0.00003   0.00000  -0.01402  -0.01395   0.12132
   D12       -2.46489  -0.00086  -0.00002  -0.05178  -0.05263  -2.51752
   D13        1.72521  -0.00051  -0.00005  -0.11396  -0.11423   1.61099
   D14       -2.46841  -0.00011  -0.00004  -0.07919  -0.07916  -2.54757
   D15       -0.13662   0.00056   0.00003   0.04262   0.04280  -0.09382
   D16        2.94371   0.00260   0.00002   0.06208   0.06238   3.00609
   D17        3.10587   0.00065  -0.00001  -0.00610  -0.00539   3.10047
   D18        0.02032  -0.00122   0.00000  -0.02377  -0.02316  -0.00284
         Item               Value     Threshold  Converged?
 Maximum Force            0.002601     0.000450     NO 
 RMS     Force            0.000821     0.000300     NO 
 Maximum Displacement     0.110737     0.001800     NO 
 RMS     Displacement     0.032680     0.001200     NO 
 Predicted change in Energy=-4.628353D-04
 GradGradGradGradGradGradGradGradGradGradGradGradGradGradGradGradGradGrad

                          Input orientation:                          
 ---------------------------------------------------------------------
 Center     Atomic      Atomic             Coordinates (Angstroms)
 Number     Number       Type             X           Y           Z
 ---------------------------------------------------------------------
      1          6           0        0.189387   -0.320180   -0.208339
      2          8           0       -1.014694   -0.401213   -0.425002
      3          8           0        0.727057    0.715383    0.515882
      4          1           0        0.932437   -1.037800   -0.566079
      5          1           0        1.701946    0.650521    0.587797
      6          6           0        4.356181   -0.234207    0.152629
      7          8           0        3.452550   -1.040047   -0.032459
      8          8           0        4.114765    1.103570   -0.023067
      9          1           0        5.361475   -0.500424    0.492214
     10          1           0        4.865759    1.699778    0.174486
 ---------------------------------------------------------------------
                    Distance matrix (angstroms):
                    1          2          3          4          5
     1  C    0.000000
     2  O    1.226099   0.000000
     3  O    1.373308   2.272828   0.000000
     4  H    1.093197   2.053403   2.070379   0.000000
     5  H    1.965687   3.084159   0.979687   2.184949   0.000000
     6  C    4.183284   5.404428   3.768848   3.589475   2.831445
     7  O    3.346248   4.529731   3.287936   2.575990   2.511444
     8  O    4.179711   5.360716   3.452205   3.873958   2.529843
     9  H    5.222429   6.442566   4.791302   4.585318   3.837442
    10  H    5.108350   6.273219   4.267837   4.849102   3.358791
                    6          7          8          9         10
     6  C    0.000000
     7  O    1.224821   0.000000
     8  O    1.370693   2.243594   0.000000
     9  H    1.093986   2.051944   2.095852   0.000000
    10  H    2.000112   3.089762   0.979021   2.277624   0.000000
 Stoichiometry    C2H4O4
 Framework group  C1[X(C2H4O4)]
 Deg. of freedom    24
 Full point group                 C1      NOp   1
 Largest Abelian subgroup         C1      NOp   1
 Largest concise Abelian subgroup C1      NOp   1
                         Standard orientation:                         
 ---------------------------------------------------------------------
 Center     Atomic      Atomic             Coordinates (Angstroms)
 Number     Number       Type             X           Y           Z
 ---------------------------------------------------------------------
      1          6           0       -1.888670   -0.212007   -0.078932
      2          8           0       -3.105606   -0.232599   -0.227129
      3          8           0       -1.237358    0.892502    0.412828
      4          1           0       -1.221092   -1.042382   -0.323672
      5          1           0       -0.267344    0.762157    0.456076
      6          6           0        2.286832   -0.403545    0.089468
      7          8           0        1.317797   -1.152602    0.097778
      8          8           0        2.134575    0.893344   -0.327301
      9          1           0        3.287228   -0.683669    0.432314
     10          1           0        2.936970    1.452046   -0.277341
 ---------------------------------------------------------------------
 Rotational constants (GHZ):      8.3496108      1.2263880      1.0979781
 Standard basis: 6-31G (6D, 7F)
 There are    62 symmetry adapted basis functions of A   symmetry.
 Integral buffers will be    131072 words long.
 Raffenetti 2 integral format.
 Two-electron integral symmetry is turned on.
    62 basis functions,   148 primitive gaussians,    62 cartesian basis functions
    24 alpha electrons       24 beta electrons
       nuclear repulsion energy       214.1637780001 Hartrees.
 NAtoms=   10 NActive=   10 NUniq=   10 SFac= 7.50D-01 NAtFMM=   80 NAOKFM=F Big=F
 One-electron integrals computed using PRISM.
 NBasis=    62 RedAO= T  NBF=    62
 NBsUse=    62 1.00D-06 NBFU=    62
 Initial guess read from the read-write file.
 B after Tr=     0.000000    0.000000    0.000000
         Rot=    1.000000    0.000000    0.000000    0.000000 Ang=   0.00 deg.
 Initial guess orbital symmetries:
       Occupied  (A) (A) (A) (A) (A) (A) (A) (A) (A) (A) (A) (A)
                 (A) (A) (A) (A) (A) (A) (A) (A) (A) (A) (A) (A)
       Virtual   (A) (A) (A) (A) (A) (A) (A) (A) (A) (A) (A) (A)
                 (A) (A) (A) (A) (A) (A) (A) (A) (A) (A) (A) (A)
                 (A) (A) (A) (A) (A) (A) (A) (A) (A) (A) (A) (A)
                 (A) (A)
 Harris functional with IExCor=  402 diagonalized for initial guess.
 ExpMin= 1.61D-01 ExpMax= 5.48D+03 ExpMxC= 8.25D+02 IAcc=1 IRadAn=         1 AccDes= 0.00D+00
 HarFok:  IExCor=  402 AccDes= 0.00D+00 IRadAn=         1 IDoV= 1
 ScaDFX=  1.000000  1.000000  1.000000  1.000000
 FoFCou: FMM=F IPFlag=           0 FMFlag=      100000 FMFlg1=           0
         NFxFlg=           0 DoJE=T BraDBF=F KetDBF=T FulRan=T
         Omega=  0.000000  0.000000  1.000000  0.000000  0.000000 ICntrl=     500 IOpCl=  0
         NMat0=    1 NMatS0=    1 NMatT0=    0 NMatD0=    1 NMtDS0=    0 NMtDT0=    0
         I1Cent=           4 NGrid=           0.
 Petite list used in FoFCou.
 Requested convergence on RMS density matrix=1.00D-08 within 128 cycles.
 Requested convergence on MAX density matrix=1.00D-06.
 Requested convergence on             energy=1.00D-06.
 No special actions if energy rises.
 Keep R1 ints in memory in canonical form, NReq=2903068.
 Integral accuracy reduced to 1.0D-05 until final iterations.
 Initial convergence to 1.0D-05 achieved.  Increase integral accuracy.
 SCF Done:  E(RB3LYP) =  -379.366211213     A.U. after   12 cycles
             Convg  =    0.6789D-08             -V/T =  2.0056
 Calling FoFJK, ICntrl=      2127 FMM=F ISym2X=0 I1Cent= 0 IOpClX= 0 NMat=1 NMatS=1 NMatT=0.
 ***** Axes restored to original set *****
 -------------------------------------------------------------------
 Center     Atomic                   Forces (Hartrees/Bohr)
 Number     Number              X              Y              Z
 -------------------------------------------------------------------
      1        6          -0.005898290    0.001960343   -0.001116636
      2        8           0.004570641   -0.000496478    0.000987151
      3        8           0.000472054    0.000502747    0.001546852
      4        1           0.000978319   -0.001960134   -0.000705730
      5        1           0.000871001   -0.000325972   -0.002741113
      6        6          -0.007009337   -0.001094849    0.000719802
      7        8           0.002920876   -0.000238077    0.001675805
      8        8           0.000409312    0.003029549    0.001853378
      9        1           0.002044962   -0.000100046   -0.001870107
     10        1           0.000640463   -0.001277084   -0.000349402
 -------------------------------------------------------------------
 Cartesian Forces:  Max     0.007009337 RMS     0.002333901

 GradGradGradGradGradGradGradGradGradGradGradGradGradGradGradGradGradGrad
 Berny optimization.
 Using GEDIIS/GDIIS optimizer.
 Internal  Forces:  Max     0.004630505 RMS     0.001176944
 Search for a local minimum.
 Step number   5 out of a maximum of   57
 All quantities printed in internal units (Hartrees-Bohrs-Radians)
 Mixed Optimization -- RFO/linear search
 Update second derivatives using D2CorX and points    1    3    2    4    5
 DE= -5.25D-04 DEPred=-4.63D-04 R= 1.13D+00
 SS=  1.41D+00  RLast= 2.32D-01 DXNew= 3.8965D-01 6.9497D-01
 Trust test= 1.13D+00 RLast= 2.32D-01 DXMaxT set to 3.90D-01
 Use linear search instead of GDIIS.
     Eigenvalues ---    0.00230   0.00672   0.01377   0.01744   0.02131
     Eigenvalues ---    0.02431   0.03222   0.03950   0.05137   0.06866
     Eigenvalues ---    0.07524   0.10763   0.11086   0.17735   0.19057
     Eigenvalues ---    0.22287   0.32810   0.35040   0.45936   0.47583
     Eigenvalues ---    0.49274   0.51591   0.88831   1.071131000.00000
     Eigenvalues --- 1000.000001000.000001000.000001000.000001000.00000
     Eigenvalues --- 1000.000001000.000001000.000001000.000001000.00000
     Eigenvalues --- 1000.000001000.000001000.000001000.000001000.00000
     Eigenvalues --- 1000.000001000.000001000.000001000.000001000.00000
     Eigenvalues --- 1000.000001000.00000
 RFO step:  Lambda=-8.35983963D-04 EMin= 2.30368233D-03
 Quartic linear search produced a step of  1.36371.
 Iteration  1 RMS(Cart)=  0.08766352 RMS(Int)=  0.01473401
 Iteration  2 RMS(Cart)=  0.01215889 RMS(Int)=  0.00614084
 Iteration  3 RMS(Cart)=  0.00017894 RMS(Int)=  0.00613868
 Iteration  4 RMS(Cart)=  0.00000198 RMS(Int)=  0.00613868
 Iteration  5 RMS(Cart)=  0.00000005 RMS(Int)=  0.00613868
 Variable       Old X    -DE/DX   Delta X   Delta X   Delta X     New X
                                 (Linear)    (Quad)   (Total)
    R1        2.31699  -0.00463   0.00688  -0.00186   0.00502   2.32201
    R2        2.59518   0.00056  -0.00222  -0.00082  -0.00231   2.59287
    R3        2.06584   0.00170  -0.00387   0.00269  -0.00299   2.06285
    R4        1.85134   0.00000   0.00161   0.00023   0.00420   1.85554
    R5        4.86792  -0.00008  -0.03267  -0.02143  -0.05647   4.81145
    R6        5.35066  -0.00145   0.00005  -0.01080  -0.01885   5.33180
    R7        4.74594   0.00109  -0.01917  -0.00524  -0.02662   4.71933
    R8        4.78071  -0.00010  -0.12234  -0.12864  -0.23620   4.54451
    R9        2.31458  -0.00233   0.00602   0.00003   0.00277   2.31735
   R10        2.59023   0.00060  -0.00739  -0.00191  -0.00819   2.58205
   R11        2.06733   0.00132  -0.00717   0.00162  -0.00555   2.06178
   R12        1.85008  -0.00036  -0.00033  -0.00124  -0.00157   1.84851
    A1        2.12646   0.00073   0.00218   0.00145   0.00326   2.12973
    A2        2.17279  -0.00066   0.00161  -0.00068   0.00056   2.17335
    A3        1.98390  -0.00006  -0.00306  -0.00083  -0.00401   1.97989
    A4        1.95885   0.00017  -0.00817  -0.00348  -0.00555   1.95330
    A5        2.21148  -0.00019   0.01013   0.00555   0.01262   2.22410
    A6        2.80002  -0.00043   0.00892   0.00365   0.00338   2.80340
    A7        2.37471  -0.00015   0.00537   0.00194  -0.00166   2.37304
    A8        2.73758   0.00077   0.03034   0.03637   0.07056   2.80814
    A9        0.92242   0.00019   0.00928   0.01540   0.02027   0.94269
   A10        2.66758   0.00177   0.09751   0.08024   0.17468   2.84226
   A11        2.08612   0.00219  -0.01875   0.00566  -0.02054   2.06558
   A12        2.17094  -0.00063   0.00368  -0.00303  -0.01366   2.15728
   A13        2.02544  -0.00153   0.01614  -0.00335   0.03428   2.05972
   A14        0.88749   0.00025  -0.00014   0.00109   0.00407   0.89156
   A15        2.42264  -0.00033   0.01965   0.01102   0.02796   2.45059
   A16        2.48477   0.00198   0.00923   0.02119   0.01919   2.50396
   A17        2.01905  -0.00015   0.03017   0.00301   0.02276   2.04181
    D1       -3.12156  -0.00057  -0.01579   0.01271  -0.00294  -3.12450
    D2        0.01206   0.00020   0.02052   0.00538   0.02645   0.03852
    D3       -3.06447   0.00053  -0.00185  -0.03674  -0.03846  -3.10294
    D4        0.08533  -0.00027  -0.03929  -0.02919  -0.06872   0.01661
    D5        0.15848  -0.00073  -0.00132   0.02281   0.01590   0.17437
    D6       -0.12371  -0.00002   0.00895   0.02515   0.03271  -0.09101
    D7        1.66212   0.00136   0.09384   0.13352   0.23255   1.89467
    D8       -0.09155   0.00020   0.02992   0.02699   0.05677  -0.03479
    D9       -0.62015   0.00068   0.07134   0.07386   0.14316  -0.47699
   D10       -2.42189  -0.00015   0.01240  -0.00954  -0.00785  -2.42974
   D11        0.12132  -0.00005  -0.01903  -0.02823  -0.04662   0.07470
   D12       -2.51752  -0.00129  -0.07177  -0.09445  -0.17015  -2.68767
   D13        1.61099   0.00018  -0.15577  -0.10987  -0.26853   1.34245
   D14       -2.54757   0.00064  -0.10795  -0.04948  -0.15616  -2.70373
   D15       -0.09382   0.00120   0.05837   0.08612   0.14370   0.04988
   D16        3.00609   0.00227   0.08507   0.06449   0.14687  -3.13022
   D17        3.10047   0.00061  -0.00736  -0.03616  -0.04250   3.05797
   D18       -0.00284  -0.00039  -0.03158  -0.01628  -0.04445  -0.04729
         Item               Value     Threshold  Converged?
 Maximum Force            0.004631     0.000450     NO 
 RMS     Force            0.001177     0.000300     NO 
 Maximum Displacement     0.317984     0.001800     NO 
 RMS     Displacement     0.094881     0.001200     NO 
 Predicted change in Energy=-6.362618D-04
 GradGradGradGradGradGradGradGradGradGradGradGradGradGradGradGradGradGrad

                          Input orientation:                          
 ---------------------------------------------------------------------
 Center     Atomic      Atomic             Coordinates (Angstroms)
 Number     Number       Type             X           Y           Z
 ---------------------------------------------------------------------
      1          6           0        0.202190   -0.322535   -0.201773
      2          8           0       -1.005101   -0.419209   -0.409004
      3          8           0        0.751075    0.781952    0.399440
      4          1           0        0.935790   -1.092470   -0.448056
      5          1           0        1.727188    0.709579    0.477642
      6          6           0        4.361172   -0.243193    0.138481
      7          8           0        3.441557   -1.042620    0.000630
      8          8           0        4.071526    1.091604    0.101549
      9          1           0        5.395061   -0.538264    0.323944
     10          1           0        4.806404    1.710538    0.285208
 ---------------------------------------------------------------------
                    Distance matrix (angstroms):
                    1          2          3          4          5
     1  C    0.000000
     2  O    1.228757   0.000000
     3  O    1.372088   2.276077   0.000000
     4  H    1.091616   2.054718   2.065389   0.000000
     5  H    1.962774   3.086375   0.981911   2.174997   0.000000
     6  C    4.173631   5.397000   3.761891   3.577505   2.821467
     7  O    3.324604   4.508793   3.275181   2.546110   2.497360
     8  O    4.130805   5.321218   3.348136   3.860711   2.404851
     9  H    5.223870   6.443094   4.828589   4.559411   3.877374
    10  H    5.056612   6.228270   4.161852   4.834892   3.243535
                    6          7          8          9         10
     6  C    0.000000
     7  O    1.226286   0.000000
     8  O    1.366361   2.227545   0.000000
     9  H    1.091049   2.043302   2.111320   0.000000
    10  H    2.009185   3.086044   0.978190   2.324893   0.000000
 Stoichiometry    C2H4O4
 Framework group  C1[X(C2H4O4)]
 Deg. of freedom    24
 Full point group                 C1      NOp   1
 Largest Abelian subgroup         C1      NOp   1
 Largest concise Abelian subgroup C1      NOp   1
                         Standard orientation:                         
 ---------------------------------------------------------------------
 Center     Atomic      Atomic             Coordinates (Angstroms)
 Number     Number       Type             X           Y           Z
 ---------------------------------------------------------------------
      1          6           0       -1.876055   -0.220053   -0.055308
      2          8           0       -3.098525   -0.253816   -0.174762
      3          8           0       -1.211209    0.926051    0.301134
      4          1           0       -1.216804   -1.078783   -0.195297
      5          1           0       -0.239497    0.789725    0.337771
      6          6           0        2.291800   -0.419536    0.036280
[...]
 Cartesian Forces:  Max     0.000040322 RMS     0.000013605

 GradGradGradGradGradGradGradGradGradGradGradGradGradGradGradGradGradGrad
 Berny optimization.
 Using GEDIIS/GDIIS optimizer.
 Internal  Forces:  Max     0.000029542 RMS     0.000006186
 Search for a local minimum.
 Step number  39 out of a maximum of   57
 All quantities printed in internal units (Hartrees-Bohrs-Radians)
 Mixed Optimization -- En-DIIS/RFO-DIIS
 Swaping is turned off.
 Update second derivatives using D2CorX and points   25   26   27   28   29
                                                     30   31   32   33   34
                                                     35   36   37   38   39
 DE= -1.60D-07 DEPred=-8.49D-08 R= 1.89D+00
 Trust test= 1.89D+00 RLast= 2.32D-02 DXMaxT set to 1.15D+00
     Eigenvalues ---    0.00034   0.00111   0.00129   0.00233   0.00455
     Eigenvalues ---    0.00631   0.01380   0.01498   0.04355   0.06722
     Eigenvalues ---    0.07941   0.08743   0.10826   0.14322   0.18924
     Eigenvalues ---    0.22004   0.32002   0.34039   0.38798   0.46945
     Eigenvalues ---    0.50755   0.52258   0.86366   0.978991000.00000
     Eigenvalues --- 1000.000001000.000001000.000001000.000001000.00000
     Eigenvalues --- 1000.000001000.000001000.000001000.000001000.00000
     Eigenvalues --- 1000.000001000.000001000.000001000.000001000.00000
     Eigenvalues --- 1000.000001000.000001000.000001000.000001000.00000
     Eigenvalues --- 1000.000001000.00000
 En-DIIS/RFO-DIIS IScMMF=        0 using points:    39   38   37   36   35
 RFO step:  Lambda= 0.00000000D+00.
 DIIS coeffs:      1.28814     -0.36536     -0.18704      0.48570     -0.22144
 Iteration  1 RMS(Cart)=  0.00035142 RMS(Int)=  0.00000496
 Iteration  2 RMS(Cart)=  0.00000224 RMS(Int)=  0.00000261
 Iteration  3 RMS(Cart)=  0.00000000 RMS(Int)=  0.00000261
 Variable       Old X    -DE/DX   Delta X   Delta X   Delta X     New X
                                  (DIIS)     (GDIIS)  (Total)
    R1        2.31411   0.00002   0.00001   0.00001   0.00002   2.31413
    R2        2.58478  -0.00001  -0.00001  -0.00001  -0.00002   2.58476
    R3        2.07747   0.00000  -0.00003   0.00001  -0.00001   2.07746
    R4        1.86502   0.00000   0.00000   0.00000  -0.00001   1.86502
    R5        5.09415   0.00000  -0.00082   0.00022  -0.00060   5.09354
    R6        5.27405  -0.00001  -0.00020   0.00007  -0.00013   5.27392
    R7        5.59085   0.00001  -0.00036   0.00029  -0.00007   5.59079
    R8        3.47473   0.00000   0.00010  -0.00014  -0.00004   3.47469
    R9        2.29902   0.00003   0.00003   0.00002   0.00004   2.29906
   R10        2.62023   0.00000  -0.00005   0.00002  -0.00003   2.62020
   R11        2.07120   0.00000   0.00000   0.00000   0.00000   2.07120
   R12        1.84863   0.00000   0.00000   0.00000   0.00000   1.84863
    A1        2.13909   0.00000  -0.00002   0.00000  -0.00002   2.13907
    A2        2.15605   0.00000   0.00002  -0.00001   0.00000   2.15605
    A3        1.98804   0.00000   0.00000   0.00001   0.00002   1.98807
    A4        1.97200   0.00001   0.00005   0.00000   0.00005   1.97205
    A5        2.39361   0.00000   0.00003   0.00002   0.00006   2.39367
    A6        2.69913   0.00000  -0.00017  -0.00001  -0.00018   2.69895
    A7        2.27665  -0.00001  -0.00021   0.00001  -0.00020   2.27646
    A8        3.13524   0.00000   0.00012   0.00004   0.00017   3.13541
    A9        0.87117   0.00001   0.00008  -0.00005   0.00003   0.87121
   A10        2.60523   0.00000   0.00012  -0.00007   0.00005   2.60528
   A11        2.10762   0.00000   0.00002   0.00002   0.00004   2.10767
   A12        2.18325   0.00000  -0.00003  -0.00003  -0.00007   2.18318
   A13        1.99232   0.00000   0.00001   0.00001   0.00002   1.99234
   A14        0.79447   0.00000   0.00010  -0.00004   0.00006   0.79453
   A15        2.01888  -0.00001   0.00015  -0.00012   0.00003   2.01891
   A16        2.19436   0.00000   0.00015  -0.00009   0.00006   2.19442
   A17        2.00885   0.00000   0.00001  -0.00003  -0.00002   2.00883
    D1        3.14118   0.00000   0.00045  -0.00003   0.00042  -3.14158
    D2       -0.00041   0.00000   0.00045  -0.00004   0.00042   0.00000
    D3        3.14127   0.00000  -0.00069  -0.00006  -0.00075   3.14052
    D4       -0.00031   0.00000  -0.00070  -0.00006  -0.00075  -0.00107
    D5        0.00203   0.00000   0.00015   0.00022   0.00037   0.00240
    D6        0.00091   0.00000  -0.00016   0.00011  -0.00005   0.00086
    D7        2.95240   0.00000   0.00060   0.00027   0.00087   2.95327
    D8        0.00047   0.00000   0.00045   0.00007   0.00052   0.00099
    D9        0.00004   0.00000   0.00019   0.00005   0.00024   0.00028
   D10        3.14004   0.00000  -0.00102  -0.00047  -0.00149   3.13854
   D11       -0.00076   0.00000  -0.00007  -0.00010  -0.00017  -0.00093
   D12       -3.14078   0.00000  -0.00011  -0.00011  -0.00022  -3.14100
   D13        0.18967   0.00000  -0.00153  -0.00026  -0.00179   0.18788
   D14       -3.14101   0.00000  -0.00080  -0.00011  -0.00091   3.14126
   D15       -0.00013   0.00001   0.00062   0.00017   0.00079   0.00065
   D16        3.14159   0.00000   0.00048   0.00018   0.00066  -3.14093
   D17        3.14155   0.00000   0.00029  -0.00006   0.00023  -3.14141
   D18       -0.00017   0.00000   0.00042  -0.00007   0.00034   0.00018
         Item               Value     Threshold  Converged?
 Maximum Force            0.000030     0.000450     YES
 RMS     Force            0.000006     0.000300     YES
 Maximum Displacement     0.001364     0.001800     YES
 RMS     Displacement     0.000354     0.001200     YES
 Predicted change in Energy=-5.980881D-09
 Optimization completed.
    -- Stationary point found.
                           ----------------------------
                           !   Optimized Parameters   !
                           ! (Angstroms and Degrees)  !
 --------------------------                            --------------------------
 ! Name  Definition              Value          Derivative Info.                !
 --------------------------------------------------------------------------------
 ! R1    R(1,2)                  1.2246         -DE/DX =    0.0                 !
 ! R2    R(1,3)                  1.3678         -DE/DX =    0.0                 !
 ! R3    R(1,4)                  1.0994         -DE/DX =    0.0                 !
 ! R4    R(3,5)                  0.9869         -DE/DX =    0.0                 !
 ! R5    R(4,7)                  2.6957         -DE/DX =    0.0                 !
 ! R6    R(5,6)                  2.7909         -DE/DX =    0.0                 !
 ! R7    R(5,7)                  2.9586         -DE/DX =    0.0                 !
 ! R8    R(5,8)                  1.8387         -DE/DX =    0.0                 !
 ! R9    R(6,7)                  1.2166         -DE/DX =    0.0                 !
 ! R10   R(6,8)                  1.3866         -DE/DX =    0.0                 !
 ! R11   R(6,9)                  1.096          -DE/DX =    0.0                 !
 ! R12   R(8,10)                 0.9783         -DE/DX =    0.0                 !
 ! A1    A(2,1,3)              122.5607         -DE/DX =    0.0                 !
 ! A2    A(2,1,4)              123.5328         -DE/DX =    0.0                 !
 ! A3    A(3,1,4)              113.9065         -DE/DX =    0.0                 !
 ! A4    A(1,3,5)              112.9871         -DE/DX =    0.0                 !
 ! A5    A(1,4,7)              137.144          -DE/DX =    0.0                 !
 ! A6    A(3,5,6)              154.6487         -DE/DX =    0.0                 !
 ! A7    A(3,5,7)              130.4426         -DE/DX =    0.0                 !
 ! A8    A(3,5,8)              179.6363         -DE/DX =    0.0                 !
 ! A9    A(7,5,8)               49.9146         -DE/DX =    0.0                 !
 ! A10   A(5,6,9)              149.2689         -DE/DX =    0.0                 !
 ! A11   A(7,6,8)              120.758          -DE/DX =    0.0                 !
 ! A12   A(7,6,9)              125.0908         -DE/DX =    0.0                 !
 ! A13   A(8,6,9)              114.1513         -DE/DX =    0.0                 !
 ! A14   A(4,7,5)               45.5198         -DE/DX =    0.0                 !
 ! A15   A(4,7,6)              115.6734         -DE/DX =    0.0                 !
 ! A16   A(5,8,10)             125.7275         -DE/DX =    0.0                 !
 ! A17   A(6,8,10)             115.0986         -DE/DX =    0.0                 !
 ! D1    D(2,1,3,5)           -180.0234         -DE/DX =    0.0                 !
 ! D2    D(4,1,3,5)             -0.0237         -DE/DX =    0.0                 !
 ! D3    D(2,1,4,7)            179.9817         -DE/DX =    0.0                 !
 ! D4    D(3,1,4,7)             -0.018          -DE/DX =    0.0                 !
 ! D5    D(1,3,5,6)              0.1166         -DE/DX =    0.0                 !
 ! D6    D(1,3,5,7)              0.0521         -DE/DX =    0.0                 !
 ! D7    D(1,3,5,8)            169.16           -DE/DX =    0.0                 !
 ! D8    D(1,4,7,5)              0.027          -DE/DX =    0.0                 !
 ! D9    D(1,4,7,6)              0.0021         -DE/DX =    0.0                 !
 ! D10   D(3,5,6,9)            179.9108         -DE/DX =    0.0                 !
 ! D11   D(3,5,7,4)             -0.0435         -DE/DX =    0.0                 !
 ! D12   D(8,5,7,4)           -179.9536         -DE/DX =    0.0                 !
 ! D13   D(3,5,8,10)            10.8673         -DE/DX =    0.0                 !
 ! D14   D(7,5,8,10)           180.0332         -DE/DX =    0.0                 !
 ! D15   D(8,6,7,4)             -0.0077         -DE/DX =    0.0                 !
 ! D16   D(9,6,7,4)           -180.0001         -DE/DX =    0.0                 !
 ! D17   D(7,6,8,10)          -180.0027         -DE/DX =    0.0                 !
 ! D18   D(9,6,8,10)            -0.0095         -DE/DX =    0.0                 !
 --------------------------------------------------------------------------------
 GradGradGradGradGradGradGradGradGradGradGradGradGradGradGradGradGradGrad

                          Input orientation:                          
 ---------------------------------------------------------------------
 Center     Atomic      Atomic             Coordinates (Angstroms)
 Number     Number       Type             X           Y           Z
 ---------------------------------------------------------------------
      1          6           0        0.307706   -0.227902   -0.123449
      2          8           0       -0.904744   -0.365961   -0.225832
      3          8           0        0.891708    0.981843    0.134151
      4          1           0        1.024139   -1.055100   -0.228525
      5          1           0        1.875858    0.931065    0.187966
      6          6           0        4.342332   -0.372393    0.106286
      7          8           0        3.697950   -1.379656   -0.117940
      8          8           0        3.709999    0.848118    0.288152
      9          1           0        5.434697   -0.327450    0.183782
     10          1           0        4.307219    1.602817    0.463470
 ---------------------------------------------------------------------
                    Distance matrix (angstroms):
                    1          2          3          4          5
     1  C    0.000000
     2  O    1.224572   0.000000
     3  O    1.367809   2.274512   0.000000
     4  H    1.099351   2.048294   2.073212   0.000000
     5  H    1.974662   3.096006   0.986928   2.200850   0.000000
     6  C    4.043744   5.257580   3.706958   3.404202   2.790908
     7  O    3.580548   4.714235   3.676306   2.695706   2.958552
     8  O    3.592052   4.799377   2.825662   3.332122   1.838746
     9  H    5.137153   6.352777   4.728156   4.489153   3.774813
    10  H    4.437580   5.613892   3.487088   4.280420   2.537453
                    6          7          8          9         10
     6  C    0.000000
     7  O    1.216587   0.000000
     8  O    1.386567   2.264516   0.000000
     9  H    1.096033   2.052916   2.089841   0.000000
    10  H    2.007553   3.099095   0.978253   2.252856   0.000000
 Stoichiometry    C2H4O4
 Framework group  C1[X(C2H4O4)]
 Deg. of freedom    24
 Full point group                 C1      NOp   1
 Largest Abelian subgroup         C1      NOp   1
 Largest concise Abelian subgroup C1      NOp   1
                         Standard orientation:                         
 ---------------------------------------------------------------------
 Center     Atomic      Atomic             Coordinates (Angstroms)
 Number     Number       Type             X           Y           Z
 ---------------------------------------------------------------------
      1          6           0       -1.765816   -0.266011    0.000040
      2          8           0       -2.975606   -0.455704   -0.000240
      3          8           0       -1.217135    0.986926    0.000264
      4          1           0       -1.023896   -1.077261    0.000129
      5          1           0       -0.230273    0.975519    0.000850
      6          6           0        2.277890   -0.248526    0.000006
      7          8           0        1.662746   -1.298136    0.000109
      8          8           0        1.608447    0.965729   -0.000253
      9          1           0        3.370209   -0.158384   -0.000016
     10          1           0        2.183899    1.756826   -0.000278
 ---------------------------------------------------------------------
 Rotational constants (GHZ):      7.4822173      1.3739537      1.1607974

 **********************************************************************

            Population analysis using the SCF density.

 **********************************************************************

 Orbital symmetries:
       Occupied  (A) (A) (A) (A) (A) (A) (A) (A) (A) (A) (A) (A)
                 (A) (A) (A) (A) (A) (A) (A) (A) (A) (A) (A) (A)
       Virtual   (A) (A) (A) (A) (A) (A) (A) (A) (A) (A) (A) (A)
                 (A) (A) (A) (A) (A) (A) (A) (A) (A) (A) (A) (A)
                 (A) (A) (A) (A) (A) (A) (A) (A) (A) (A) (A) (A)
                 (A) (A)
 The electronic state is 1-A.
 Alpha  occ. eigenvalues --  -19.25849 -19.20859 -19.16799 -19.12675 -10.38594
 Alpha  occ. eigenvalues --  -10.30647  -1.16740  -1.09520  -1.08470  -1.01225
 Alpha  occ. eigenvalues --   -0.70256  -0.63780  -0.61791  -0.55620  -0.49750
 Alpha  occ. eigenvalues --   -0.49469  -0.45117  -0.41917  -0.41661  -0.37789
 Alpha  occ. eigenvalues --   -0.35397  -0.33812  -0.29467  -0.25684
 Alpha virt. eigenvalues --   -0.06526   0.00064   0.01101   0.06734   0.14004
 Alpha virt. eigenvalues --    0.15222   0.21186   0.22671   0.28819   0.32312
 Alpha virt. eigenvalues --    0.46575   0.51527   0.53483   0.58376   0.62525
 Alpha virt. eigenvalues --    0.64382   0.69867   0.73213   0.79300   0.80561
 Alpha virt. eigenvalues --    0.83664   0.84116   0.86193   0.93400   0.94397
 Alpha virt. eigenvalues --    0.95094   0.96451   1.01723   1.02501   1.11302
 Alpha virt. eigenvalues --    1.16802   1.19240   1.30393   1.40456   1.55721
 Alpha virt. eigenvalues --    1.64818   1.73569   1.80292
          Condensed to atoms (all electrons):
              1          2          3          4          5          6
     1  C    4.728441   0.481576   0.130098   0.332402  -0.004123   0.000362
     2  O    0.481576   8.051271  -0.081669  -0.069546   0.002429   0.000001
     3  O    0.130098  -0.081669   8.412839  -0.101788   0.215658  -0.000038
     4  H    0.332402  -0.069546  -0.101788   0.687046   0.003845   0.000486
     5  H   -0.004123   0.002429   0.215658   0.003845   0.328987   0.000747
     6  C    0.000362   0.000001  -0.000038   0.000486   0.000747   4.677086
     7  O   -0.001961   0.000010  -0.000079   0.010035   0.000167   0.497461
     8  O   -0.000262  -0.000002  -0.012679  -0.000430   0.035390   0.090671
     9  H   -0.000012   0.000000  -0.000023   0.000082   0.000379   0.343010
    10  H    0.000069   0.000000   0.000473   0.000017  -0.000656   0.001787
              7          8          9         10
     1  C   -0.001961  -0.000262  -0.000012   0.000069
     2  O    0.000010  -0.000002   0.000000   0.000000
     3  O   -0.000079  -0.012679  -0.000023   0.000473
     4  H    0.010035  -0.000430   0.000082   0.000017
     5  H    0.000167   0.035390   0.000379  -0.000656
     6  C    0.497461   0.090671   0.343010   0.001787
     7  O    7.967630  -0.080946  -0.059206   0.003565
     8  O   -0.080946   8.411144  -0.094823   0.219593
     9  H   -0.059206  -0.094823   0.642988   0.003769
    10  H    0.003565   0.219593   0.003769   0.360891
 Mulliken atomic charges:
              1
     1  C    0.333411
     2  O   -0.384070
     3  O   -0.562794
     4  H    0.137851
     5  H    0.417177
     6  C    0.388426
     7  O   -0.336674
     8  O   -0.567656
     9  H    0.163837
    10  H    0.410492
 Sum of Mulliken atomic charges =   0.00000
 Mulliken charges with hydrogens summed into heavy atoms:
              1
     1  C    0.471262
     2  O   -0.384070
     3  O   -0.145617
     6  C    0.552263
     7  O   -0.336674
     8  O   -0.157164
 Sum of Mulliken charges with hydrogens summed into heavy atoms =   0.00000
 Electronic spatial extent (au):  <R**2>=            895.3044
 Charge=              0.0000 electrons
 Dipole moment (field-independent basis, Debye):
    X=              8.8369    Y=              2.3566    Z=              0.0015  Tot=              9.1457
 Quadrupole moment (field-independent basis, Debye-Ang):
   XX=            -35.7164   YY=            -35.0120   ZZ=            -33.6253
   XY=              7.9983   XZ=             -0.0021   YZ=              0.0007
 Traceless Quadrupole moment (field-independent basis, Debye-Ang):
   XX=             -0.9318   YY=             -0.2274   ZZ=              1.1592
   XY=              7.9983   XZ=             -0.0021   YZ=              0.0007
 Octapole moment (field-independent basis, Debye-Ang**2):
  XXX=             97.0795  YYY=             15.0142  ZZZ=              0.0002  XYY=             10.7053
  XXY=             19.3881  XXZ=              0.0020  XZZ=              0.1604  YZZ=              0.1372
  YYZ=             -0.0006  XYZ=              0.0012
 Hexadecapole moment (field-independent basis, Debye-Ang**3):
 XXXX=           -884.8158 YYYY=           -160.6393 ZZZZ=            -25.9493 XXXY=             13.6651
 XXXZ=             -0.0220 YYYX=             37.6577 YYYZ=             -0.0010 ZZZX=              0.0004
 ZZZY=              0.0003 XXYY=           -165.1932 XXZZ=           -143.2539 YYZZ=            -33.0674
 XXYZ=             -0.0067 YYXZ=             -0.0042 ZZXY=              0.5881
 N-N= 2.174490329719D+02 E-N=-1.327363789549D+03  KE= 3.772576082132D+02
 1\1\GINC-LSQC07\FOpt\RB3LYP\6-31G\C2H4O4\LITAO\01-May-2015\0\\# opt b3
 lyp/6-31g\\Title Card Required\\0,1\C,0.3077056333,-0.227902218,-0.123
 4493765\O,-0.9047438933,-0.3659610137,-0.2258316999\O,0.8917076842,0.9
 81843411,0.1341510078\H,1.0241386031,-1.0550997269,-0.2285246845\H,1.8
 758583641,0.931065232,0.1879662169\C,4.3423316037,-0.3723934535,0.1062
 85793\O,3.697949711,-1.379656311,-0.1179395865\O,3.7099988108,0.848118
 2246,0.2881520113\H,5.4346970048,-0.3274496624,0.1837816322\H,4.307219
 4782,1.602816518,0.4634702861\\Version=EM64L-G09RevA.01\State=1-A\HF=-
 379.3710251\RMSD=5.789e-09\RMSF=1.360e-05\Dipole=3.4955324,0.7723504,0
 .3631115\Quadrupole=-0.3391533,-0.6046724,0.9438257,5.8576269,0.988932
 5,0.1053227\PG=C01 [X(C2H4O4)]\\@


 IT'S WHAT A FELLER THINKS HE KNOWS THAT HURTS HIM...
                    ------
           KIN HUBBARD
 Job cpu time:  0 days  0 hours  8 minutes 14.4 seconds.
 File lengths (MBytes):  RWF=      5 Int=      0 D2E=      0 Chk=      1 Scr=      1
 Normal termination of Gaussian 09 at Fri May  1 20:34:41 2015.
