10
  This energy is -0.00488691 and Call times are: 428
C	-0.291723	-0.323578	-0.12623
O	-0.0739824	-0.332211	1.07473
O	0.299698	0.569423	-0.918874
H	-0.97727	-1.05447	-0.55346
H	0.868485	1.14254	-0.417079
C	3.60679	0.340184	-0.217373
O	3.77303	-0.736585	-0.767574
O	2.88382	0.430111	0.898306
H	4.05493	1.23671	-0.644134
H	2.55468	-0.42326	1.15754
