10
  This energy is -0.00642874 and Call times are: 716
C	-0.189511	0.244631	-0.331633
O	-1.01375	-0.369506	0.326592
O	1.10961	0.157538	-0.0484038
H	-0.520917	0.870431	-1.15943
H	1.25602	-0.419124	0.693082
C	4.63737	0.153191	0.26163
O	3.64714	-0.152929	0.90624
O	4.653	0.0243176	-1.06452
H	5.51733	0.535819	0.77736
H	3.82461	-0.318676	-1.3806
