10
  This energy is -4.268e-06 and Call times are: 6629
C	0.223255	-0.351209	0.180412
O	0.22525	0.62854	0.90834
O	-0.389125	-0.31907	-1.00258
H	0.728009	-1.26122	0.502601
H	-0.785466	0.531482	-1.15507
C	11.3569	0.296	0.0193056
O	12.3979	0.756817	0.459442
O	11.3089	-0.95	-0.450482
H	10.4578	0.911158	0.0110415
H	12.1593	-1.36963	-0.383119
