10
  This energy is 2.4021e-05 and Call times are: 9191
C	-0.0961084	0.443278	-0.00252609
O	-0.353706	-0.0976172	-1.06595
O	0.410754	-0.256405	1.01189
H	-0.283103	1.50977	0.117236
H	0.522057	-1.16922	0.770717
C	11.4719	0.44506	0.0498586
O	10.8728	0.180212	-0.980023
O	11.8429	-0.521029	0.889256
H	11.7054	1.483	0.284154
H	11.5766	-1.37323	0.562723
