10
  This energy is -0.00049074 and Call times are: 5468
C	-0.0881789	0.435942	-0.0889855
O	-0.437969	-0.306305	-0.992594
O	0.484346	-0.0529149	1.01045
H	-0.24636	1.50959	-0.183645
H	0.560258	-0.9992	0.959856
C	4.52814	0.0699432	0.305236
O	4.67574	0.741845	-0.703006
O	3.491	-0.757893	0.425804
H	5.25296	0.148869	1.11463
H	2.94188	-0.726982	-0.349621
