10
  This energy is -0.00150659 and Call times are: 9905
C	0.162138	-0.330885	0.26451
O	0.327511	-0.557732	-0.923338
O	-0.437906	0.788838	0.666607
H	0.50937	-1.05256	1.00297
H	-0.687872	1.32453	-0.0779273
C	3.57731	0.0407108	-0.393056
O	3.65735	-1.11812	-0.0182368
O	4.11042	1.0273	0.32664
H	3.06417	0.26953	-1.32635
H	4.52469	0.68723	1.11182
