10
  This energy is -0.00197859 and Call times are: 5594
C	-0.344627	-0.0566071	-0.289425
O	0.717573	-0.450692	-0.743537
O	-0.408602	0.471551	0.932243
H	-1.24948	-0.138148	-0.890502
H	0.449301	0.481117	1.34174
C	3.71054	0.229978	0.390817
O	3.87211	-0.969466	0.548996
O	3.52865	0.737488	-0.827732
H	3.71531	0.891698	1.25616
H	3.54725	0.05165	-1.4858
