10
  This energy is 0.000305748 and Call times are: 11488
C	0.406947	0.0663055	-0.189043
O	0.454544	0.0489203	1.03048
O	-0.750941	-0.098535	-0.827509
H	1.32182	0.218336	-0.760539
H	-1.46322	-0.220402	-0.209789
C	7.7072	0.151888	-0.168445
O	7.58543	-0.319748	0.950718
O	8.89668	0.18339	-0.768157
H	6.83307	0.551098	-0.681509
H	9.56669	-0.195518	-0.210228
