10
  This energy is -0.0038132 and Call times are: 1913
C	0.340377	0.15545	0.256355
O	0.46271	-1.02786	-0.0167719
O	-0.706283	0.851473	-0.185879
H	1.09585	0.646689	0.868441
H	-1.28298	0.301823	-0.704607
C	3.7272	0.424327	-0.157941
O	3.55955	0.384461	1.0504
O	3.81165	-0.698222	-0.870868
H	3.80852	1.38883	-0.657768
H	3.72458	-1.4616	-0.311007
