10
  This energy is -0.000209652 and Call times are: 10900
C	0.215739	0.0167306	0.398642
O	0.549923	0.918737	-0.352687
O	-0.690812	-0.883603	0.0203861
H	0.664297	-0.0518572	1.389
H	-0.997054	-0.704958	-0.861702
C	4.11478	0.28779	-0.277101
O	4.25986	0.575327	0.900212
O	3.39001	-0.771589	-0.634787
H	4.58349	0.904824	-1.0428
H	3.04179	-1.21666	0.129692
