10
  This energy is -7.062e-06 and Call times are: 5957
C	-0.374768	0.254926	0.0173438
O	0.581064	0.85853	-0.442915
O	-0.255546	-1.01404	0.405979
H	-1.33525	0.760329	0.110883
H	0.631354	-1.32768	0.268821
C	12.8166	-0.105858	-0.337988
O	13.821	-0.799433	-0.334609
O	12.6399	0.840721	0.583036
H	12.0572	-0.263465	-1.10289
H	13.3756	0.868636	1.18454
