10
  This energy is -9.3166e-05 and Call times are: 1006
C	-0.206989	-0.16878	-0.366617
O	0.832927	-0.752251	-0.105988
O	-0.626221	0.845543	0.388968
H	-0.797886	-0.481702	-1.22663
H	-0.0180974	1.01073	1.10078
C	7.70974	0.0185447	0.348054
O	8.38817	1.02844	0.250009
O	7.86069	-0.98897	-0.510806
H	6.97312	-0.0586702	1.1469
H	8.53332	-0.788625	-1.15207
