10
  This energy is -6.346e-06 and Call times are: 5915
C	0.0226085	-0.4314	0.138283
O	-0.931831	0.162985	0.613195
O	0.865046	0.185125	-0.689794
H	0.186366	-1.47733	0.395032
H	0.604369	1.08918	-0.825859
C	15.1236	0.423953	-0.142016
O	14.5344	-0.407896	-0.813338
O	15.8907	0.0527712	0.882353
H	15.0204	1.48106	-0.384036
H	15.8903	-0.892906	0.979679
