10
  This energy is -0.00272388 and Call times are: 3796
C	-0.108984	-0.0844708	-0.432118
O	-0.660564	0.913524	0.00326151
O	0.711612	-0.799012	0.337017
H	-0.290415	-0.393295	-1.46091
H	0.777891	-0.418323	1.20561
C	4.40939	-0.179804	0.359952
O	3.32487	0.303694	0.642488
O	4.86432	-0.146209	-0.892016
H	5.01098	-0.643556	1.1408
H	4.24162	0.285054	-1.4665
