10
  This energy is -9.69e-07 and Call times are: 7343
C	-0.163415	0.297451	-0.300928
O	-0.507665	0.551095	0.84229
O	0.609593	-0.756235	-0.561157
H	-0.49243	0.940336	-1.1165
H	0.820512	-1.22631	0.237795
C	16.3503	0.262261	-0.119279
O	15.3725	0.436142	-0.828809
O	16.3188	-0.619629	0.879115
H	17.2581	0.834958	-0.305361
H	15.4702	-1.04558	0.927203
