10
  This energy is -0.000100424 and Call times are: 6209
C	0.210938	0.391903	0.0874988
O	-0.275948	0.361991	-1.03136
O	0.0954174	-0.651414	0.908266
H	0.745516	1.28189	0.417432
H	-0.391972	-1.35486	0.494279
C	9.00097	0.29219	0.172575
O	7.85831	0.719505	0.211537
O	9.26056	-0.911651	-0.336244
H	9.81657	0.902683	0.55833
H	8.46166	-1.33225	-0.633963
