10
  This energy is -0.000424558 and Call times are: 7595
C	0.0746124	0.0677633	-0.442244
O	1.1052	0.0676883	0.211723
O	-1.10582	-0.117464	0.147484
H	0.121778	0.221049	-1.51973
H	-1.00035	-0.237923	1.08458
C	7.03375	-0.242536	0.113024
O	7.56073	-0.64114	-0.913229
O	7.53599	0.798325	0.776259
H	6.14313	-0.744103	0.489765
H	8.30868	1.1373	0.338299
