10
  This energy is -0.0104368 and Call times are: 5510
C	0.0317488	-0.428231	-0.146114
O	1.00771	0.241554	-0.443917
O	-0.979715	0.108193	0.535579
H	-0.0115946	-1.47589	-0.441477
H	-0.810679	1.02403	0.726479
C	4.30016	-0.207786	-0.0493779
O	3.77181	-0.458056	1.02207
O	3.7065	0.597516	-0.929475
H	5.26763	-0.648254	-0.287491
H	2.87323	0.909002	-0.594192
