10
  This energy is -0.00371541 and Call times are: 11908
C	0.453536	0.00648304	0.00129522
O	-0.0104321	-0.488839	1.01578
O	-0.34708	0.458036	-0.963395
H	1.53415	0.079593	-0.115477
H	-1.26035	0.332082	-0.731336
C	4.92233	-0.330996	-0.309325
O	6.02099	0.117159	-0.0231571
O	3.82037	0.149517	0.265399
H	4.8432	-1.13257	-1.04276
H	4.03449	0.841335	0.881285
