10
  This energy is 0.000143944 and Call times are: 922
C	0.44784	0.0566621	0.0443626
O	0.106877	-1.1067	0.186184
O	-0.453738	1.00392	-0.211312
H	1.50105	0.322098	0.127975
H	-1.32847	0.634458	-0.2574
C	7.78418	0.0922035	-0.155996
O	8.62797	0.102678	-1.03787
O	8.12181	-0.16985	1.10609
H	6.74408	0.299527	-0.404794
H	9.05578	-0.331311	1.17962
