10
  This energy is 0.000120036 and Call times are: 1342
C	-0.125892	-0.395057	0.183903
O	1.06745	-0.355822	-0.0694472
O	-0.912244	0.648051	-0.0789485
H	-0.551457	-1.29328	0.629772
H	-0.41281	1.35926	-0.46433
C	7.16493	-0.160648	-0.422731
O	8.04727	0.675336	-0.311351
O	6.42488	-0.51339	0.6277
H	6.9815	-0.622662	-1.39206
H	6.69104	-0.0347416	1.40477
