10
  This energy is 1.5892e-05 and Call times are: 5873
C	-0.111832	0.110024	-0.425591
O	-0.64129	0.836345	0.400195
O	0.695593	-0.878971	-0.0441863
H	-0.302316	0.273188	-1.48568
H	0.772046	-0.906725	0.903
C	13.0604	-0.0371728	-0.105195
O	13.4055	1.12171	0.0610345
O	13.9355	-1.03348	0.0249701
H	12.0252	-0.257996	-0.362751
H	14.7967	-0.699689	0.250334
