10
  This energy is -7.529e-05 and Call times are: 7217
C	-0.39465	-0.200017	-0.0999191
O	0.562066	-0.936312	-0.279794
O	-0.221899	1.04451	0.343726
H	-1.40021	-0.565562	-0.304706
H	0.700542	1.22991	0.479766
C	10.1474	0.231431	-0.358999
O	10.112	0.886918	0.67002
O	10.5982	-1.02244	-0.352238
H	9.80627	0.677569	-1.29245
H	10.8614	-1.28234	0.523542
