10
  This energy is -0.000360813 and Call times are: 9863
C	0.389065	0.105194	0.20809
O	-0.321702	1.0802	0.0237778
O	-0.00143216	-1.1062	-0.186309
H	1.35297	0.228092	0.700522
H	-0.857132	-1.06792	-0.598729
C	4.15379	0.420651	-0.0861075
O	4.39167	0.240865	1.09748
O	4.32823	-0.559282	-0.972008
H	3.795	1.39335	-0.420532
H	4.64305	-1.34845	-0.545538
