10
  This energy is -0.000571892 and Call times are: 3628
C	0.0372843	0.153469	0.425201
O	-1.05019	0.403975	-0.0692075
O	0.96563	-0.503527	-0.269093
H	0.249934	0.47105	1.44531
H	0.648137	-0.718426	-1.13903
C	5.28298	-0.234537	-0.265806
O	5.59491	0.941842	-0.172923
O	4.21364	-0.707728	0.373038
H	5.88626	-0.903847	-0.878001
H	3.78275	-0.0191167	0.866925
