10
  This energy is -0.00259544 and Call times are: 3408
C	0.352209	-0.148251	-0.244355
O	-0.574921	-0.94199	-0.230225
O	0.267482	1.00915	0.410445
H	1.25828	-0.38993	-0.798735
H	-0.572695	1.08928	0.848005
C	4.58628	-0.411596	0.0403155
O	4.99675	0.372371	0.880974
O	3.68801	-0.0288395	-0.866388
H	4.95922	-1.4351	0.0323138
H	3.45174	0.883813	-0.743833
