44
  This energy is -7.0394 and Call times are: 114572
C	-0.505182	-0.634026	-3.3846
C	0.0611329	0.172608	-2.28016
O	0.885238	1.05059	-2.4956
H	-0.0492411	-0.311859	-4.34595
H	-1.60428	-0.48729	-3.44112
H	-0.283901	-1.71041	-3.22481
N	-0.374944	-0.114555	-1.05144
C	0.115455	0.554874	0.127511
C	0.00268808	-0.404323	1.29746
O	-0.594547	-1.47268	1.18064
H	-1.01534	-0.859485	-0.887628
H	1.166	0.783226	-0.00229086
C	-0.688729	1.84394	0.404716
H	-1.76492	1.60899	0.548411
H	-0.311727	2.37584	1.3022
H	-0.598472	2.52753	-0.467585
N	0.585713	-0.0458786	2.45833
C	0.535137	-0.89717	3.62406
H	1.068	0.820729	2.53225
H	1.0723	-0.427703	4.47746
H	1.00879	-1.88292	3.41141
H	-0.519874	-1.08026	3.93159
C	6.4938	-0.835445	3.05454
C	5.69299	0.064496	2.19434
O	5.05066	0.989924	2.67122
H	6.3778	-0.527732	4.11648
H	7.56731	-0.774145	2.77782
H	6.14293	-1.88313	2.9436
N	5.71267	-0.193735	0.884634
C	4.94972	0.567537	-0.0729323
C	4.6222	-0.338784	-1.24463
O	5.13265	-1.45319	-1.34074
H	6.20749	-0.975455	0.515957
H	4.01068	0.867047	0.375531
C	5.74099	1.80501	-0.550217
H	6.69966	1.49769	-1.01987
H	5.15862	2.40701	-1.27751
H	5.9766	2.44975	0.324499
N	3.74996	0.118778	-2.16433
C	3.37393	-0.675626	-3.3105
H	3.34424	1.02157	-2.0672
H	2.64733	-0.126015	-3.94864
H	2.90325	-1.63251	-2.98784
H	4.26763	-0.921664	-3.92849
