44
  This energy is -5.9307 and Call times are: 95765
C	-1.56808	2.12022	-2.27123
C	-1.50991	1.41928	-0.968752
O	-2.29007	1.69305	-0.0671938
H	-2.37794	2.88128	-2.24291
H	-1.78292	1.39697	-3.08579
H	-0.60283	2.63002	-2.4749
N	-0.565368	0.484671	-0.83946
C	-0.357538	-0.251709	0.382469
C	1.10477	-0.649696	0.451968
O	1.84899	-0.484338	-0.512654
H	0.0885449	0.301698	-1.56801
H	-0.556247	0.395378	1.22771
C	-1.26213	-1.50245	0.433503
H	-1.05129	-2.17174	-0.427678
H	-1.12144	-2.07047	1.37589
H	-2.32694	-1.18796	0.373232
N	1.55437	-1.17961	1.60656
C	2.93194	-1.58289	1.76728
H	0.937974	-1.3018	2.3774
H	3.10501	-1.9941	2.78619
H	3.61505	-0.71537	1.61878
H	3.20167	-2.36615	1.02238
C	7.23797	0.429763	3.06699
C	6.21143	0.801814	2.06751
O	5.30926	1.57954	2.34612
H	7.01825	0.943744	4.02793
H	8.24445	0.739885	2.71548
H	7.22756	-0.667705	3.23589
N	6.32775	0.242401	0.860893
C	5.38121	0.473873	-0.201675
C	5.36437	-0.75188	-1.09544
O	6.19383	-1.64793	-0.951195
H	7.04391	-0.42038	0.661664
H	4.38942	0.579216	0.220073
C	5.76055	1.7313	-1.01421
H	6.77371	1.61938	-1.45584
H	5.03157	1.92814	-1.82684
H	5.77445	2.61438	-0.338701
N	4.40663	-0.823309	-2.04077
C	4.30889	-1.95427	-2.93382
H	3.74183	-0.0902491	-2.13946
H	3.45752	-1.82673	-3.6382
H	4.15054	-2.89573	-2.35949
H	5.24347	-2.06646	-3.52974
