 Entering Gaussian System, Link 0=g09
 Input=ir2cl8-opt.gjf
 Output=ir2cl8-opt.log
 Initial command:
 /usr/g09/l1.exe /scratch/litao/gaussian/Gau-4354.inp -scrdir=/scratch/litao/gaussian/
 Entering Link 1 = /usr/g09/l1.exe PID=      4355.
  
 Copyright (c) 1988,1990,1992,1993,1995,1998,2003,2009, Gaussian, Inc.
                  All Rights Reserved.
  
 This is part of the Gaussian(R) 09 program.  It is based on
 the Gaussian(R) 03 system (copyright 2003, Gaussian, Inc.),
 the Gaussian(R) 98 system (copyright 1998, Gaussian, Inc.),
 the Gaussian(R) 94 system (copyright 1995, Gaussian, Inc.),
 the Gaussian 92(TM) system (copyright 1992, Gaussian, Inc.),
 the Gaussian 90(TM) system (copyright 1990, Gaussian, Inc.),
 the Gaussian 88(TM) system (copyright 1988, Gaussian, Inc.),
 the Gaussian 86(TM) system (copyright 1986, Carnegie Mellon
 University), and the Gaussian 82(TM) system (copyright 1983,
 Carnegie Mellon University). Gaussian is a federally registered
 trademark of Gaussian, Inc.
  
 This software contains proprietary and confidential information,
 including trade secrets, belonging to Gaussian, Inc.
  
 This software is provided under written license and may be
 used, copied, transmitted, or stored only in accord with that
 written license.
  
 The following legend is applicable only to US Government
 contracts under FAR:
  
                    RESTRICTED RIGHTS LEGEND
  
 Use, reproduction and disclosure by the US Government is
 subject to restrictions as set forth in subparagraphs (a)
 and (c) of the Commercial Computer Software - Restricted
 Rights clause in FAR 52.227-19.
  
 Gaussian, Inc.
 340 Quinnipiac St., Bldg. 40, Wallingford CT 06492
  
  
 ---------------------------------------------------------------
 Warning -- This program may not be used in any manner that
 competes with the business of Gaussian, Inc. or will provide
 assistance to any competitor of Gaussian, Inc.  The licensee
 of this program is prohibited from giving any competitor of
 Gaussian, Inc. access to this program.  By using this program,
 the user acknowledges that Gaussian, Inc. is engaged in the
 business of creating and licensing software in the field of
 computational chemistry and represents and warrants to the
 licensee that it is not a competitor of Gaussian, Inc. and that
 it will not use this program in any manner prohibited above.
 ---------------------------------------------------------------
  

 Cite this work as:
 Gaussian 09, Revision A.01,
 M. J. Frisch, G. W. Trucks, H. B. Schlegel, G. E. Scuseria, 
 M. A. Robb, J. R. Cheeseman, G. Scalmani, V. Barone, B. Mennucci, 
 G. A. Petersson, H. Nakatsuji, M. Caricato, X. Li, H. P. Hratchian, 
 A. F. Izmaylov, J. Bloino, G. Zheng, J. L. Sonnenberg, M. Hada, 
 M. Ehara, K. Toyota, R. Fukuda, J. Hasegawa, M. Ishida, T. Nakajima, 
 Y. Honda, O. Kitao, H. Nakai, T. Vreven, J. A. Montgomery, Jr., 
 J. E. Peralta, F. Ogliaro, M. Bearpark, J. J. Heyd, E. Brothers, 
 K. N. Kudin, V. N. Staroverov, R. Kobayashi, J. Normand, 
 K. Raghavachari, A. Rendell, J. C. Burant, S. S. Iyengar, J. Tomasi, 
 M. Cossi, N. Rega, J. M. Millam, M. Klene, J. E. Knox, J. B. Cross, 
 V. Bakken, C. Adamo, J. Jaramillo, R. Gomperts, R. E. Stratmann, 
 O. Yazyev, A. J. Austin, R. Cammi, C. Pomelli, J. W. Ochterski, 
 R. L. Martin, K. Morokuma, V. G. Zakrzewski, G. A. Voth, 
 P. Salvador, J. J. Dannenberg, S. Dapprich, A. D. Daniels, 
 O. Farkas, J. B. Foresman, J. V. Ortiz, J. Cioslowski, 
 and D. J. Fox, Gaussian, Inc., Wallingford CT, 2009.
 
 ******************************************
 Gaussian 09:  EM64L-G09RevA.01  8-May-2009
                 5-May-2015 
 ******************************************
 %nprocshared=8
 Will use up to    8 processors via shared memory.
 %mem=8GB
 %chk=ir2cl8-stable.chk
 --------------------------
 #opt b3lyp/genecp pop=full
 --------------------------
 1/14=-1,18=20,19=15,26=3,38=1/1,3;
 2/9=110,12=2,17=6,18=5,40=1/2;
 3/5=7,11=2,16=1,17=8,25=1,30=1,71=1,74=-5/1,2,3;
 4//1;
 5/5=2,38=5/2;
 6/7=3,28=1/1;
 7//1,2,3,16;
 1/14=-1,18=20,19=15/3(2);
 2/9=110/2;
 99//99;
 2/9=110/2;
 3/5=7,6=1,11=2,16=1,17=8,25=1,30=1,71=1,74=-5,82=7/1,2,3;
 4/5=5,16=3/1;
 5/5=2,38=5/2;
 7//1,2,3,16;
 1/14=-1,18=20,19=15/3(-5);
 2/9=110/2;
 6/7=3,19=2,28=1/1;
 99/9=1/99;
 -------------------
 Title Card Required
 -------------------
 Symbolic Z-matrix:
 Charge =  0 Multiplicity = 1
 Ir                    0.        0.        0. 
 Ir                    0.        0.        2.24016 
 Cl                    1.57      1.57      2.782 
 Cl                    1.57     -1.57      2.782 
 Cl                   -1.57      1.57      2.782 
 Cl                   -1.57     -1.57      2.782 
 Cl                    1.57      1.57     -0.54 
 Cl                    1.57     -1.57     -0.54 
 Cl                   -1.57      1.57     -0.54 
 Cl                   -1.57     -1.57     -0.54 
 

 GradGradGradGradGradGradGradGradGradGradGradGradGradGradGradGradGradGrad
 Berny optimization.
 Initialization pass.
                           ----------------------------
                           !    Initial Parameters    !
                           ! (Angstroms and Degrees)  !
 --------------------------                            --------------------------
 ! Name  Definition              Value          Derivative Info.                !
 --------------------------------------------------------------------------------
 ! R1    R(1,2)                  2.2402         estimate D2E/DX2                !
 ! R2    R(1,7)                  2.285          estimate D2E/DX2                !
 ! R3    R(1,8)                  2.285          estimate D2E/DX2                !
 ! R4    R(1,9)                  2.285          estimate D2E/DX2                !
 ! R5    R(1,10)                 2.285          estimate D2E/DX2                !
 ! R6    R(2,3)                  2.2855         estimate D2E/DX2                !
 ! R7    R(2,4)                  2.2855         estimate D2E/DX2                !
 ! R8    R(2,5)                  2.2855         estimate D2E/DX2                !
 ! R9    R(2,6)                  2.2855         estimate D2E/DX2                !
 ! A1    A(2,1,7)              103.6694         estimate D2E/DX2                !
 ! A2    A(2,1,8)              103.6694         estimate D2E/DX2                !
 ! A3    A(2,1,9)              103.6694         estimate D2E/DX2                !
 ! A4    A(2,1,10)             103.6694         estimate D2E/DX2                !
 ! A5    A(7,1,8)               86.7985         estimate D2E/DX2                !
 ! A6    A(7,1,9)               86.7985         estimate D2E/DX2                !
 ! A7    A(7,1,10)             152.6611         estimate D2E/DX2                !
 ! A8    A(8,1,9)              152.6611         estimate D2E/DX2                !
 ! A9    A(8,1,10)              86.7985         estimate D2E/DX2                !
 ! A10   A(9,1,10)              86.7985         estimate D2E/DX2                !
 ! A11   A(1,2,3)              103.7143         estimate D2E/DX2                !
 ! A12   A(1,2,4)              103.7143         estimate D2E/DX2                !
 ! A13   A(1,2,5)              103.7143         estimate D2E/DX2                !
 ! A14   A(1,2,6)              103.7143         estimate D2E/DX2                !
 ! A15   A(3,2,4)               86.7779         estimate D2E/DX2                !
 ! A16   A(3,2,5)               86.7779         estimate D2E/DX2                !
 ! A17   A(3,2,6)              152.5714         estimate D2E/DX2                !
 ! A18   A(4,2,5)              152.5714         estimate D2E/DX2                !
 ! A19   A(4,2,6)               86.7779         estimate D2E/DX2                !
 ! A20   A(5,2,6)               86.7779         estimate D2E/DX2                !
 ! D1    D(7,1,2,3)              0.0            estimate D2E/DX2                !
 ! D2    D(7,1,2,4)            -90.0            estimate D2E/DX2                !
 ! D3    D(7,1,2,5)             90.0            estimate D2E/DX2                !
 ! D4    D(7,1,2,6)            180.0            estimate D2E/DX2                !
 ! D5    D(8,1,2,3)             90.0            estimate D2E/DX2                !
 ! D6    D(8,1,2,4)              0.0            estimate D2E/DX2                !
 ! D7    D(8,1,2,5)           -180.0            estimate D2E/DX2                !
 ! D8    D(8,1,2,6)            -90.0            estimate D2E/DX2                !
 ! D9    D(9,1,2,3)            -90.0            estimate D2E/DX2                !
 ! D10   D(9,1,2,4)            180.0            estimate D2E/DX2                !
 ! D11   D(9,1,2,5)              0.0            estimate D2E/DX2                !
 ! D12   D(9,1,2,6)             90.0            estimate D2E/DX2                !
 ! D13   D(10,1,2,3)           180.0            estimate D2E/DX2                !
 ! D14   D(10,1,2,4)            90.0            estimate D2E/DX2                !
 ! D15   D(10,1,2,5)           -90.0            estimate D2E/DX2                !
 ! D16   D(10,1,2,6)             0.0            estimate D2E/DX2                !
 --------------------------------------------------------------------------------
 Trust Radius=3.00D-01 FncErr=1.00D-07 GrdErr=1.00D-06
 Number of steps in this run=  55 maximum allowed number of steps= 100.
 GradGradGradGradGradGradGradGradGradGradGradGradGradGradGradGradGradGrad

                          Input orientation:                          
 ---------------------------------------------------------------------
 Center     Atomic      Atomic             Coordinates (Angstroms)
 Number     Number       Type             X           Y           Z
 ---------------------------------------------------------------------
      1         77           0        0.000000    0.000000    0.000000
      2         77           0        0.000000    0.000000    2.240158
      3         17           0        1.570000    1.570000    2.782000
      4         17           0        1.570000   -1.570000    2.782000
      5         17           0       -1.570000    1.570000    2.782000
      6         17           0       -1.570000   -1.570000    2.782000
      7         17           0        1.570000    1.570000   -0.540000
      8         17           0        1.570000   -1.570000   -0.540000
      9         17           0       -1.570000    1.570000   -0.540000
     10         17           0       -1.570000   -1.570000   -0.540000
 ---------------------------------------------------------------------
                    Distance matrix (angstroms):
                    1          2          3          4          5
     1  Ir   0.000000
     2  Ir   2.240158   0.000000
     3  Cl   3.559399   2.285474   0.000000
     4  Cl   3.559399   2.285474   3.140000   0.000000
     5  Cl   3.559399   2.285474   3.140000   4.440631   0.000000
     6  Cl   3.559399   2.285474   4.440631   3.140000   3.140000
     7  Cl   2.285038   3.557960   3.322000   4.571136   4.571136
     8  Cl   2.285038   3.557960   4.571136   3.322000   5.545709
     9  Cl   2.285038   3.557960   4.571136   5.545709   3.322000
    10  Cl   2.285038   3.557960   5.545709   4.571136   4.571136
                    6          7          8          9         10
     6  Cl   0.000000
     7  Cl   5.545709   0.000000
     8  Cl   4.571136   3.140000   0.000000
     9  Cl   4.571136   3.140000   4.440631   0.000000
    10  Cl   3.322000   4.440631   3.140000   3.140000   0.000000
 Stoichiometry    Cl8Ir2
 Framework group  C4V[C4(IrIr),2SGV(Cl4)]
 Deg. of freedom     5
 Full point group                 C4V     NOp   8
 Largest Abelian subgroup         C2V     NOp   4
 Largest concise Abelian subgroup C2V     NOp   4
                         Standard orientation:                         
 ---------------------------------------------------------------------
 Center     Atomic      Atomic             Coordinates (Angstroms)
 Number     Number       Type             X           Y           Z
 ---------------------------------------------------------------------
      1         77           0        0.000000    0.000000    1.120511
      2         77           0        0.000000    0.000000   -1.119647
      3         17           0        0.000000    2.220315   -1.661489
      4         17           0       -2.220315    0.000000   -1.661489
      5         17           0        2.220315    0.000000   -1.661489
      6         17           0        0.000000   -2.220315   -1.661489
      7         17           0        0.000000    2.220315    1.660511
      8         17           0       -2.220315    0.000000    1.660511
      9         17           0        2.220315    0.000000    1.660511
     10         17           0        0.000000   -2.220315    1.660511
 ---------------------------------------------------------------------
 Rotational constants (GHZ):      0.3664515      0.2597624      0.2597624
 General basis read from cards:  (5D, 7F)
 ======================================================================================================
                                       Pseudopotential Parameters
 ======================================================================================================
  Center     Atomic      Valence      Angular      Power
  Number     Number     Electrons     Momentum     of R      Exponent        Coefficient   SO-Coeffient
 ======================================================================================================
    1         77           17
                                      G and up 
                                                     1      823.5880147       -0.15780140    0.00000000
                                                     2      364.6613336    -1517.52704460    0.00000000
                                                     2       55.7082801     -316.53065290    0.00000000
                                                     2       12.0464544      -91.88809410    0.00000000
                                                     2        3.5120610       -9.22417730    0.00000000
                                      S - G
                                                     0      188.0490770        3.15780140    0.00000000
                                                     1      340.4194712       26.83225770    0.00000000
                                                     2      128.2373673      800.42500070    0.00000000
                                                     2       33.8644961      369.40506830    0.00000000
                                                     2        4.7560005      242.41718990    0.00000000
                                                     2        3.9649974     -118.21732820    0.00000000
                                      P - G
                                                     0      289.7291139        2.15780140    0.00000000
                                                     1       87.4633789       61.96786100    0.00000000
                                                     2       30.4363766      269.05819860    0.00000000
                                                     2        4.0553412      231.16547930    0.00000000
                                                     2        3.5525341     -133.69526670    0.00000000
                                      D - G
                                                     0      136.4017106        3.15780140    0.00000000
                                                     1       95.0776925       45.93498030    0.00000000
                                                     2       49.2258410      359.03446680    0.00000000
                                                     2       15.0874145      176.47401190    0.00000000
                                                     2        4.0405764       54.51552860    0.00000000
                                      F - G
                                                     0      127.3507908        3.95461970    0.00000000
                                                     1       66.2364374       52.97736550    0.00000000
                                                     2       34.4299229      274.86433830    0.00000000
                                                     2       10.1995721      137.20473380    0.00000000
                                                     2        2.5409702       14.86333050    0.00000000
    2         77           17
                                      G and up 
                                                     1      823.5880147       -0.15780140    0.00000000
                                                     2      364.6613336    -1517.52704460    0.00000000
                                                     2       55.7082801     -316.53065290    0.00000000
                                                     2       12.0464544      -91.88809410    0.00000000
                                                     2        3.5120610       -9.22417730    0.00000000
                                      S - G
                                                     0      188.0490770        3.15780140    0.00000000
                                                     1      340.4194712       26.83225770    0.00000000
                                                     2      128.2373673      800.42500070    0.00000000
                                                     2       33.8644961      369.40506830    0.00000000
                                                     2        4.7560005      242.41718990    0.00000000
                                                     2        3.9649974     -118.21732820    0.00000000
                                      P - G
                                                     0      289.7291139        2.15780140    0.00000000
                                                     1       87.4633789       61.96786100    0.00000000
                                                     2       30.4363766      269.05819860    0.00000000
                                                     2        4.0553412      231.16547930    0.00000000
                                                     2        3.5525341     -133.69526670    0.00000000
                                      D - G
                                                     0      136.4017106        3.15780140    0.00000000
                                                     1       95.0776925       45.93498030    0.00000000
                                                     2       49.2258410      359.03446680    0.00000000
                                                     2       15.0874145      176.47401190    0.00000000
                                                     2        4.0405764       54.51552860    0.00000000
                                      F - G
                                                     0      127.3507908        3.95461970    0.00000000
                                                     1       66.2364374       52.97736550    0.00000000
                                                     2       34.4299229      274.86433830    0.00000000
                                                     2       10.1995721      137.20473380    0.00000000
                                                     2        2.5409702       14.86333050    0.00000000
    3         17
                                   No pseudopotential on this center.
    4         17
                                   No pseudopotential on this center.
    5         17
                                   No pseudopotential on this center.
    6         17
                                   No pseudopotential on this center.
    7         17
                                   No pseudopotential on this center.
    8         17
                                   No pseudopotential on this center.
    9         17
                                   No pseudopotential on this center.
   10         17
                                   No pseudopotential on this center.
 ======================================================================================================
 There are    72 symmetry adapted basis functions of A1  symmetry.
 There are    24 symmetry adapted basis functions of A2  symmetry.
 There are    46 symmetry adapted basis functions of B1  symmetry.
 There are    46 symmetry adapted basis functions of B2  symmetry.
 Integral buffers will be    131072 words long.
 Raffenetti 2 integral format.
 Two-electron integral symmetry is turned on.
   188 basis functions,   502 primitive gaussians,   200 cartesian basis functions
    85 alpha electrons       85 beta electrons
       nuclear repulsion energy      2036.9273144516 Hartrees.
 NAtoms=   10 NActive=   10 NUniq=    4 SFac= 3.00D+00 NAtFMM=   80 NAOKFM=F Big=F
 One-electron integrals computed using PRISM.
   8 Symmetry operations used in ECPInt.
 ECPInt:  NShTT=    1596 NPrTT=   14482 LenC2=    1481 LenP2D=    8758.
 LDataN:  DoStor=T MaxTD1= 6 Len=  172
 NBasis=   188 RedAO= T  NBF=    72    24    46    46
 NBsUse=   188 1.00D-06 NBFU=    72    24    46    46
 Defaulting to unpruned grid for atomic number  77.
 Harris functional with IExCor=  402 diagonalized for initial guess.
 ExpMin= 2.90D-02 ExpMax= 2.52D+04 ExpMxC= 3.78D+03 IAcc=3 IRadAn=         0 AccDes= 0.00D+00
 HarFok:  IExCor=  402 AccDes= 0.00D+00 IRadAn=         0 IDoV= 1
 ScaDFX=  1.000000  1.000000  1.000000  1.000000
 Defaulting to unpruned grid for atomic number  77.
 Defaulting to unpruned grid for atomic number  77.
 Defaulting to unpruned grid for atomic number  77.
 Defaulting to unpruned grid for atomic number  77.
 Defaulting to unpruned grid for atomic number  77.
 Defaulting to unpruned grid for atomic number  77.
 Defaulting to unpruned grid for atomic number  77.
 Defaulting to unpruned grid for atomic number  77.
 FoFCou: FMM=F IPFlag=           0 FMFlag=      100000 FMFlg1=           0
         NFxFlg=           0 DoJE=T BraDBF=F KetDBF=T FulRan=T
         Omega=  0.000000  0.000000  1.000000  0.000000  0.000000 ICntrl=     500 IOpCl=  0
         NMat0=    1 NMatS0=    1 NMatT0=    0 NMatD0=    1 NMtDS0=    0 NMtDT0=    0
         I1Cent=           4 NGrid=           0.
 Petite list used in FoFCou.
 Initial guess orbital symmetries:
       Occupied  (B2) (E) (E) (A1) (E) (E) (A1) (B2) (B2) (E) (E)
                 (A1) (E) (E) (A1) (B2) (B2) (A1) (E) (E) (A1)
                 (E) (E) (B2) (E) (E) (A2) (B2) (A1) (E) (E) (A2)
                 (E) (E) (B1) (A1) (B2) (B1) (E) (E) (A1) (A1)
                 (A1) (E) (E) (E) (E) (A1) (A1) (B2) (A1) (B2)
                 (E) (E) (E) (E) (B1) (A1) (B1) (A1) (B2) (E) (E)
                 (A1) (B2) (E) (E) (E) (E) (B2) (A1) (E) (E) (E)
                 (E) (B2) (A2) (E) (E) (A2) (E) (E) (A1) (B1) (A1)
       Virtual   (E) (E) (B1) (E) (E) (A1) (A1) (B2) (A1) (B2)
                 (E) (E) (A1) (E) (E) (A1) (E) (E) (B2) (B1) (B1)
                 (E) (E) (A1) (B2) (E) (E) (B2) (A1) (A1) (E) (E)
                 (E) (E) (A1) (A2) (A1) (A2) (E) (E) (E) (E) (B2)
                 (A1) (E) (E) (B2) (B2) (E) (E) (E) (E) (B1) (B2)
                 (B1) (A1) (E) (E) (B2) (A2) (A2) (B1) (A1) (B1)
                 (E) (E) (E) (E) (E) (E) (B2) (A1) (A2) (B2) (E)
                 (E) (A2) (E) (E) (A1) (E) (E) (A1) (A1) (E) (E)
                 (B2) (B1) (B2) (E) (E) (B2) (E) (E) (A1) (E) (E)
                 (A1) (A1) (B1) (B2) (A1) (A1)
 The electronic state of the initial guess is 1-A1.
 Requested convergence on RMS density matrix=1.00D-08 within 128 cycles.
 Requested convergence on MAX density matrix=1.00D-06.
 Requested convergence on             energy=1.00D-06.
 No special actions if energy rises.
 Keep R1 ints in memory in canonical form, NReq=206321594.
 Defaulting to unpruned grid for atomic number  77.
 Defaulting to unpruned grid for atomic number  77.
 Defaulting to unpruned grid for atomic number  77.
 Defaulting to unpruned grid for atomic number  77.
 Defaulting to unpruned grid for atomic number  77.
 Defaulting to unpruned grid for atomic number  77.
 Defaulting to unpruned grid for atomic number  77.
 Defaulting to unpruned grid for atomic number  77.
 Density matrix breaks symmetry, PCut= 1.00D-04
 Density has only Abelian symmetry.
 Density matrix breaks symmetry, PCut= 1.00D-04
 Density has only Abelian symmetry.
 EnCoef did   100 forward-backward iterations
 Density matrix breaks symmetry, PCut= 1.00D-04
 Density has only Abelian symmetry.
 Density matrix breaks symmetry, PCut= 1.00D-04
 Density has only Abelian symmetry.
 Density matrix breaks symmetry, PCut= 1.00D-04
 Density has only Abelian symmetry.
 EnCoef did     2 forward-backward iterations
 Density matrix breaks symmetry, PCut= 1.00D-04
 Density has only Abelian symmetry.
 Density matrix breaks symmetry, PCut= 1.00D-04
 Density has only Abelian symmetry.
 Density matrix breaks symmetry, PCut= 1.00D-04
 Density has only Abelian symmetry.
 EnCoef did     4 forward-backward iterations
 Density matrix breaks symmetry, PCut= 1.00D-04
 Density has only Abelian symmetry.
 Density matrix breaks symmetry, PCut= 1.00D-04
 Density has only Abelian symmetry.
 Density matrix breaks symmetry, PCut= 1.00D-04
 Density has only Abelian symmetry.
 Density matrix breaks symmetry, PCut= 1.00D-04
 Density has only Abelian symmetry.
 Density matrix breaks symmetry, PCut= 1.00D-04
 Density has only Abelian symmetry.
 SCF Done:  E(RB3LYP) =  -3891.01532520     A.U. after   19 cycles
             Convg  =    0.3775D-08             -V/T =  2.0403

 **********************************************************************

            Population analysis using the SCF density.

 **********************************************************************

 Orbital symmetries:
       Occupied  (E) (E) (B2) (A1) (E) (E) (A1) (B2) (B2) (E) (E)
                 (A1) (E) (E) (A1) (B2) (B2) (A1) (E) (E) (A1)
                 (E) (E) (B2) (B2) (A1) (E) (E) (B2) (A1) (E) (E)
                 (E) (E) (A2) (B1) (E) (E) (A2) (B1) (A1) (A1)
                 (A1) (E) (E) (A1) (E) (E) (A1) (A1) (B2) (E) (E)
                 (B2) (E) (E) (A1) (E) (E) (B2) (A1) (B1) (B2)
                 (A1) (B1) (E) (E) (E) (E) (A1) (A1) (B2) (E) (E)
                 (E) (E) (E) (E) (E) (E) (B1) (B2) (A2) (A2) (B1)
       Virtual   (E) (E) (A1) (B2) (B2) (A1) (A1) (A1) (E) (E)
                 (E) (E) (A1) (A1) (E) (E) (E) (E) (A1) (A1) (B1)
                 (B2) (B2) (B1) (E) (E) (B1) (A1) (B2) (E) (E)
                 (E) (E) (A1) (B1) (E) (E) (E) (E) (A1) (A1) (E)
                 (E) (A2) (B2) (B2) (E) (E) (E) (E) (A2) (E) (E)
                 (A1) (B2) (B2) (A1) (E) (E) (B2) (A2) (B2) (B1)
                 (E) (E) (A2) (E) (E) (B1) (E) (E) (A1) (A1) (E)
                 (E) (A1) (B2) (A2) (E) (E) (A2) (E) (E) (A1) (B2)
                 (E) (E) (B1) (B2) (A1) (A1) (B2) (E) (E) (A1)
                 (E) (E) (B1) (E) (E) (B2) (A1) (A1)
 The electronic state is 1-A1.
 Alpha  occ. eigenvalues -- -101.57462-101.57462-101.57462-101.57462-101.57457
 Alpha  occ. eigenvalues -- -101.57457-101.57457-101.57456  -9.50532  -9.50532
 Alpha  occ. eigenvalues --   -9.50532  -9.50529  -9.50524  -9.50524  -9.50523
 Alpha  occ. eigenvalues --   -9.50521  -7.26704  -7.26700  -7.26699  -7.26699
 Alpha  occ. eigenvalues --   -7.26696  -7.26695  -7.26695  -7.26695  -7.26148
 Alpha  occ. eigenvalues --   -7.26147  -7.26147  -7.26147  -7.26143  -7.26143
 Alpha  occ. eigenvalues --   -7.26141  -7.26141  -7.25726  -7.25726  -7.25725
 Alpha  occ. eigenvalues --   -7.25723  -7.25722  -7.25722  -7.25721  -7.25719
 Alpha  occ. eigenvalues --   -3.88819  -3.88290  -2.32732  -2.28283  -2.28283
 Alpha  occ. eigenvalues --   -2.27690  -2.27686  -2.27686  -0.88023  -0.87025
 Alpha  occ. eigenvalues --   -0.85381  -0.85124  -0.85124  -0.84533  -0.84414
 Alpha  occ. eigenvalues --   -0.84414  -0.54314  -0.52251  -0.52251  -0.50828
 Alpha  occ. eigenvalues --   -0.50236  -0.49480  -0.49132  -0.48532  -0.47205
 Alpha  occ. eigenvalues --   -0.44364  -0.44364  -0.41294  -0.41294  -0.40956
 Alpha  occ. eigenvalues --   -0.38670  -0.36985  -0.36132  -0.36132  -0.35958
 Alpha  occ. eigenvalues --   -0.35958  -0.34733  -0.34733  -0.33881  -0.33881
 Alpha  occ. eigenvalues --   -0.33168  -0.32898  -0.32615  -0.32030  -0.31952
 Alpha virt. eigenvalues --   -0.24236  -0.24236  -0.22851  -0.16234  -0.15012
 Alpha virt. eigenvalues --   -0.09952   0.00879   0.02011   0.03645   0.03645
 Alpha virt. eigenvalues --    0.05656   0.05656   0.06271   0.07531   0.14710
 Alpha virt. eigenvalues --    0.14710   0.25854   0.25854   0.28684   0.29542
 Alpha virt. eigenvalues --    0.32271   0.32351   0.33333   0.35630   0.35706
 Alpha virt. eigenvalues --    0.35706   0.36979   0.39141   0.39581   0.40370
 Alpha virt. eigenvalues --    0.40370   0.41895   0.41895   0.43504   0.43898
 Alpha virt. eigenvalues --    0.44710   0.44710   0.46698   0.46698   0.47992
 Alpha virt. eigenvalues --    0.49515   0.50044   0.50044   0.51087   0.53323
 Alpha virt. eigenvalues --    0.53584   0.55124   0.55124   0.56378   0.56378
 Alpha virt. eigenvalues --    0.56734   0.57268   0.57268   0.57432   0.59331
 Alpha virt. eigenvalues --    0.61353   0.65734   0.73909   0.73909   0.81444
 Alpha virt. eigenvalues --    0.82476   0.82479   0.82582   0.82595   0.82595
 Alpha virt. eigenvalues --    0.82815   0.83044   0.83044   0.83056   0.83298
 Alpha virt. eigenvalues --    0.83298   0.84328   0.85420   0.86452   0.86452
 Alpha virt. eigenvalues --    0.86475   0.86706   0.86975   0.87730   0.87730
 Alpha virt. eigenvalues --    0.88968   0.89733   0.89733   0.92449   0.93175
 Alpha virt. eigenvalues --    0.96929   0.96929   1.02759   1.04447   1.09194
 Alpha virt. eigenvalues --    1.13437   1.13819   1.14027   1.14027   1.14397
 Alpha virt. eigenvalues --    1.14703   1.14703   1.20806   1.26512   1.26512
 Alpha virt. eigenvalues --    1.53161   5.15881  11.17458
     Molecular Orbital Coefficients:
                           1         2         3         4         5
                        (E)--O    (E)--O    (B2)--O   (A1)--O   (E)--O
     Eigenvalues --  -101.57462-101.57462-101.57462-101.57462-101.57457
   1 1   Ir 1S          0.00000   0.00000   0.00000  -0.00002   0.00000
   2        2S          0.00000   0.00000   0.00000  -0.00020   0.00000
   3        3S          0.00000   0.00000   0.00000   0.00904   0.00000
   4        4PX        -0.00014   0.00000   0.00000   0.00000   0.00000
   5        4PY         0.00000   0.00014   0.00000   0.00000  -0.00021
   6        4PZ         0.00000   0.00000   0.00000  -0.00032   0.00000
   7        5PX        -0.00209   0.00000   0.00000   0.00000   0.00000
   8        5PY         0.00000   0.00209   0.00000   0.00000  -0.00288
   9        5PZ         0.00000   0.00000   0.00000  -0.00444   0.00000
  10        6PX        -0.00028   0.00000   0.00000   0.00000   0.00000
  11        6PY         0.00000   0.00028   0.00000   0.00000  -0.00062
  12        6PZ         0.00000   0.00000   0.00000  -0.00043   0.00000
  13        7D 0        0.00000   0.00000   0.00000  -0.00007   0.00000
  14        7D+1       -0.00001   0.00000   0.00000   0.00000   0.00000
  15        7D-1        0.00000   0.00001   0.00000   0.00000  -0.00001
  16        7D+2        0.00000   0.00000   0.00013   0.00000   0.00000
  17        7D-2        0.00000   0.00000   0.00000   0.00000   0.00000
  18        8D 0        0.00000   0.00000   0.00000   0.00096   0.00000
  19        8D+1        0.00019   0.00000   0.00000   0.00000   0.00000
  20        8D-1        0.00000  -0.00019   0.00000   0.00000  -0.00024
  21        8D+2        0.00000   0.00000  -0.00005   0.00000   0.00000
  22        8D-2        0.00000   0.00000   0.00000   0.00000   0.00000
  23 2   Ir 1S          0.00000   0.00000   0.00000   0.00033   0.00000
  24        2S          0.00000   0.00000   0.00000   0.00046   0.00000
  25        3S          0.00000   0.00000  -0.00001  -0.01241   0.00000
  26        4PX         0.00025   0.00000   0.00000   0.00000   0.00000
  27        4PY         0.00000  -0.00025   0.00000   0.00000   0.00002
  28        4PZ         0.00000   0.00000   0.00000  -0.00028   0.00000
  29        5PX         0.00353   0.00000   0.00000   0.00000   0.00000
  30        5PY         0.00000  -0.00353   0.00000   0.00000   0.00039
  31        5PZ         0.00000   0.00000   0.00000  -0.00374   0.00000
  32        6PX         0.00068   0.00000   0.00000   0.00000   0.00000
  33        6PY         0.00000  -0.00068   0.00000   0.00000  -0.00006
  34        6PZ         0.00000   0.00000   0.00000  -0.00085   0.00000
  35        7D 0        0.00000   0.00000   0.00000   0.00000   0.00000
  36        7D+1       -0.00001   0.00000   0.00000   0.00000   0.00000
  37        7D-1        0.00000   0.00001   0.00000   0.00000  -0.00001
  38        7D+2        0.00000   0.00000  -0.00015   0.00000   0.00000
  39        7D-2        0.00000   0.00000   0.00000   0.00000   0.00000
  40        8D 0        0.00000   0.00000   0.00000  -0.00036   0.00000
  41        8D+1       -0.00012   0.00000   0.00000   0.00000   0.00000
  42        8D-1        0.00000   0.00012   0.00000   0.00000   0.00028
  43        8D+2        0.00000   0.00000  -0.00026   0.00000   0.00000
  44        8D-2        0.00000   0.00000   0.00000   0.00000   0.00000
  45 3   Cl 1S          0.00000   0.68126  -0.46834   0.48848   0.17990
  46        2S          0.00000   0.00866  -0.00597   0.00621   0.00230
  47        2PX         0.00002   0.00000   0.00000   0.00000   0.00000
  48        2PY         0.00000  -0.00004   0.00005  -0.00003  -0.00001
  49        2PZ         0.00000   0.00002  -0.00002   0.00001  -0.00001
  50        3S          0.00000  -0.00377   0.00247  -0.00266  -0.00078
  51        3PX        -0.00009   0.00000   0.00000   0.00000   0.00000
  52        3PY         0.00000   0.00013  -0.00020   0.00011   0.00001
  53        3PZ         0.00000  -0.00008   0.00009  -0.00004   0.00004
  54        4S          0.00000   0.00422  -0.00189   0.00316   0.00048
  55        4PX        -0.00010   0.00000   0.00000   0.00000   0.00000
  56        4PY         0.00000  -0.00125   0.00060  -0.00072  -0.00003
  57        4PZ         0.00000   0.00043  -0.00023   0.00035  -0.00008
  58        5D 0        0.00000  -0.00005   0.00003   0.00001  -0.00002
  59        5D+1       -0.00002   0.00000   0.00000   0.00000   0.00000
  60        5D-1        0.00000  -0.00005   0.00002  -0.00005   0.00001
  61        5D+2        0.00000  -0.00009   0.00003  -0.00003  -0.00001
  62        5D-2        0.00003   0.00000   0.00000   0.00000   0.00000
  63 4   Cl 1S          0.68126   0.00000   0.46889   0.48797   0.00000
  64        2S          0.00866   0.00000   0.00598   0.00620   0.00000
  65        2PX         0.00004   0.00000   0.00005   0.00003   0.00000
  66        2PY         0.00000  -0.00002   0.00000   0.00000   0.00001
  67        2PZ         0.00002   0.00000   0.00002   0.00001   0.00000
  68        3S         -0.00377   0.00000  -0.00247  -0.00266   0.00000
  69        3PX        -0.00013   0.00000  -0.00020  -0.00011   0.00000
  70        3PY         0.00000   0.00009   0.00000   0.00000  -0.00003
  71        3PZ        -0.00008   0.00000  -0.00009  -0.00004   0.00000
  72        4S          0.00422   0.00000   0.00189   0.00315   0.00000
  73        4PX         0.00125   0.00000   0.00060   0.00072   0.00000
  74        4PY         0.00000   0.00010   0.00000   0.00000   0.00007
  75        4PZ         0.00043   0.00000   0.00023   0.00035   0.00000
  76        5D 0       -0.00005   0.00000  -0.00003   0.00001   0.00000
  77        5D+1        0.00005   0.00000   0.00002   0.00005   0.00000
  78        5D-1        0.00000   0.00002   0.00000   0.00000   0.00001
  79        5D+2        0.00009   0.00000   0.00003   0.00003   0.00000
  80        5D-2        0.00000   0.00003   0.00000   0.00000  -0.00001
  81 5   Cl 1S         -0.68126   0.00000   0.46889   0.48797   0.00000
  82        2S         -0.00866   0.00000   0.00598   0.00620   0.00000
  83        2PX         0.00004   0.00000  -0.00005  -0.00003   0.00000
  84        2PY         0.00000  -0.00002   0.00000   0.00000   0.00001
  85        2PZ        -0.00002   0.00000   0.00002   0.00001   0.00000
  86        3S          0.00377   0.00000  -0.00247  -0.00266   0.00000
  87        3PX        -0.00013   0.00000   0.00020   0.00011   0.00000
  88        3PY         0.00000   0.00009   0.00000   0.00000  -0.00003
  89        3PZ         0.00008   0.00000  -0.00009  -0.00004   0.00000
  90        4S         -0.00422   0.00000   0.00189   0.00315   0.00000
  91        4PX         0.00125   0.00000  -0.00060  -0.00072   0.00000
  92        4PY         0.00000   0.00010   0.00000   0.00000   0.00007
  93        4PZ        -0.00043   0.00000   0.00023   0.00035   0.00000
  94        5D 0        0.00005   0.00000  -0.00003   0.00001   0.00000
  95        5D+1        0.00005   0.00000  -0.00002  -0.00005   0.00000
  96        5D-1        0.00000   0.00002   0.00000   0.00000   0.00001
  97        5D+2       -0.00009   0.00000   0.00003   0.00003   0.00000
  98        5D-2        0.00000  -0.00003   0.00000   0.00000   0.00001
  99 6   Cl 1S          0.00000  -0.68126  -0.46834   0.48848  -0.17990
 100        2S          0.00000  -0.00866  -0.00597   0.00621  -0.00230
 101        2PX         0.00002   0.00000   0.00000   0.00000   0.00000
 102        2PY         0.00000  -0.00004  -0.00005   0.00003  -0.00001
 103        2PZ         0.00000  -0.00002  -0.00002   0.00001   0.00001
 104        3S          0.00000   0.00377   0.00247  -0.00266   0.00078
 105        3PX        -0.00009   0.00000   0.00000   0.00000   0.00000
 106        3PY         0.00000   0.00013   0.00020  -0.00011   0.00001
 107        3PZ         0.00000   0.00008   0.00009  -0.00004  -0.00004
 108        4S          0.00000  -0.00422  -0.00189   0.00316  -0.00048
 109        4PX        -0.00010   0.00000   0.00000   0.00000   0.00000
 110        4PY         0.00000  -0.00125  -0.00060   0.00072  -0.00003
 111        4PZ         0.00000  -0.00043  -0.00023   0.00035   0.00008
 112        5D 0        0.00000   0.00005   0.00003   0.00001   0.00002
 113        5D+1       -0.00002   0.00000   0.00000   0.00000   0.00000
 114        5D-1        0.00000  -0.00005  -0.00002   0.00005   0.00001
 115        5D+2        0.00000   0.00009   0.00003  -0.00003   0.00001
 116        5D-2       -0.00003   0.00000   0.00000   0.00000   0.00000
 117 7   Cl 1S          0.00000  -0.17989   0.16918  -0.09947   0.68126
 118        2S          0.00000  -0.00228   0.00216  -0.00126   0.00866
 119        2PX        -0.00001   0.00000   0.00000   0.00000   0.00000
 120        2PY         0.00000   0.00001  -0.00002   0.00001  -0.00004
 121        2PZ         0.00000   0.00001  -0.00002   0.00000  -0.00001
 122        3S          0.00000   0.00118  -0.00102   0.00063  -0.00366
 123        3PX         0.00007   0.00000   0.00000   0.00000   0.00000
 124        3PY         0.00000  -0.00006   0.00010  -0.00005   0.00012
 125        3PZ         0.00000  -0.00008   0.00011  -0.00002   0.00005
 126        4S          0.00000  -0.00167   0.00083  -0.00086   0.00391
 127        4PX        -0.00001   0.00000   0.00000   0.00000   0.00000
 128        4PY         0.00000   0.00059  -0.00024   0.00009  -0.00110
 129        4PZ         0.00000   0.00029  -0.00024   0.00011  -0.00034
 130        5D 0        0.00000   0.00001   0.00000  -0.00002  -0.00005
 131        5D+1        0.00000   0.00000   0.00000   0.00000   0.00000
 132        5D-1        0.00000  -0.00003   0.00001  -0.00002   0.00004
 133        5D+2        0.00000   0.00004  -0.00001  -0.00002  -0.00009
 134        5D-2       -0.00002   0.00000   0.00000   0.00000   0.00000
 135 8   Cl 1S         -0.17986   0.00000  -0.16926  -0.09926   0.00000
 136        2S         -0.00228   0.00000  -0.00216  -0.00126   0.00000
 137        2PX        -0.00001   0.00000  -0.00002  -0.00001   0.00000
 138        2PY         0.00000   0.00001   0.00000   0.00000  -0.00001
 139        2PZ         0.00001   0.00000   0.00002   0.00000   0.00000
 140        3S          0.00118   0.00000   0.00102   0.00063   0.00000
 141        3PX         0.00006   0.00000   0.00010   0.00005   0.00000
 142        3PY         0.00000  -0.00007   0.00000   0.00000   0.00006
 143        3PZ        -0.00008   0.00000  -0.00011  -0.00002   0.00000
 144        4S         -0.00167   0.00000  -0.00083  -0.00086   0.00000
 145        4PX        -0.00059   0.00000  -0.00024  -0.00009   0.00000
 146        4PY         0.00000   0.00001   0.00000   0.00000   0.00012
 147        4PZ         0.00029   0.00000   0.00024   0.00011   0.00000
 148        5D 0        0.00001   0.00000   0.00000  -0.00002   0.00000
 149        5D+1        0.00003   0.00000   0.00001   0.00002   0.00000
 150        5D-1        0.00000   0.00000   0.00000   0.00000  -0.00003
 151        5D+2       -0.00004   0.00000  -0.00001   0.00002   0.00000
 152        5D-2        0.00000  -0.00002   0.00000   0.00000   0.00003
 153 9   Cl 1S          0.17986   0.00000  -0.16926  -0.09926   0.00000
 154        2S          0.00228   0.00000  -0.00216  -0.00126   0.00000
 155        2PX        -0.00001   0.00000   0.00002   0.00001   0.00000
 156        2PY         0.00000   0.00001   0.00000   0.00000  -0.00001
 157        2PZ        -0.00001   0.00000   0.00002   0.00000   0.00000
 158        3S         -0.00118   0.00000   0.00102   0.00063   0.00000
 159        3PX         0.00006   0.00000  -0.00010  -0.00005   0.00000
 160        3PY         0.00000  -0.00007   0.00000   0.00000   0.00006
 161        3PZ         0.00008   0.00000  -0.00011  -0.00002   0.00000
 162        4S          0.00167   0.00000  -0.00083  -0.00086   0.00000
 163        4PX        -0.00059   0.00000   0.00024   0.00009   0.00000
 164        4PY         0.00000   0.00001   0.00000   0.00000   0.00012
 165        4PZ        -0.00029   0.00000   0.00024   0.00011   0.00000
 166        5D 0       -0.00001   0.00000   0.00000  -0.00002   0.00000
 167        5D+1        0.00003   0.00000  -0.00001  -0.00002   0.00000
 168        5D-1        0.00000   0.00000   0.00000   0.00000  -0.00003
 169        5D+2        0.00004   0.00000  -0.00001   0.00002   0.00000
 170        5D-2        0.00000   0.00002   0.00000   0.00000  -0.00003
 171 10  Cl 1S          0.00000   0.17989   0.16918  -0.09947  -0.68126
 172        2S          0.00000   0.00228   0.00216  -0.00126  -0.00866
 173        2PX        -0.00001   0.00000   0.00000   0.00000   0.00000
 174        2PY         0.00000   0.00001   0.00002  -0.00001  -0.00004
 175        2PZ         0.00000  -0.00001  -0.00002   0.00000   0.00001
 176        3S          0.00000  -0.00118  -0.00102   0.00063   0.00366
 177        3PX         0.00007   0.00000   0.00000   0.00000   0.00000
 178        3PY         0.00000  -0.00006  -0.00010   0.00005   0.00012
 179        3PZ         0.00000   0.00008   0.00011  -0.00002  -0.00005
 180        4S          0.00000   0.00167   0.00083  -0.00086  -0.00391
 181        4PX        -0.00001   0.00000   0.00000   0.00000   0.00000
 182        4PY         0.00000   0.00059   0.00024  -0.00009  -0.00110
 183        4PZ         0.00000  -0.00029  -0.00024   0.00011   0.00034
 184        5D 0        0.00000  -0.00001   0.00000  -0.00002   0.00005
 185        5D+1        0.00000   0.00000   0.00000   0.00000   0.00000
 186        5D-1        0.00000  -0.00003  -0.00001   0.00002   0.00004
 187        5D+2        0.00000  -0.00004  -0.00001  -0.00002   0.00009
 188        5D-2        0.00002   0.00000   0.00000   0.00000   0.00000
                           6         7         8         9        10
                        (E)--O    (A1)--O   (B2)--O   (B2)--O   (E)--O
     Eigenvalues --  -101.57457-101.57457-101.57456  -9.50532  -9.50532
   1 1   Ir 1S          0.00000   0.00035   0.00000   0.00000   0.00000
   2        2S          0.00000   0.00041   0.00000   0.00000   0.00000
   3        3S          0.00000  -0.00964   0.00000   0.00000   0.00000
   4        4PX         0.00021   0.00000   0.00000   0.00000   0.00101
   5        4PY         0.00000   0.00000   0.00000   0.00000   0.00000
   6        4PZ         0.00000   0.00017   0.00000   0.00000   0.00000
   7        5PX         0.00288   0.00000   0.00000   0.00000   0.01395
   8        5PY         0.00000   0.00000   0.00000   0.00000   0.00000
   9        5PZ         0.00000   0.00217   0.00000   0.00000   0.00000
  10        6PX         0.00062   0.00000   0.00000   0.00000   0.00260
  11        6PY         0.00000   0.00000   0.00000   0.00000   0.00000
  12        6PZ         0.00000   0.00075   0.00000   0.00000   0.00000
  13        7D 0        0.00000  -0.00003   0.00000   0.00000   0.00000
  14        7D+1        0.00001   0.00000   0.00000   0.00000   0.00004
  15        7D-1        0.00000   0.00000   0.00000   0.00000   0.00000
  16        7D+2        0.00000   0.00000  -0.00008  -0.00066   0.00000
  17        7D-2        0.00000   0.00000   0.00000   0.00000   0.00000
  18        8D 0        0.00000   0.00002   0.00000   0.00000   0.00000
  19        8D+1        0.00024   0.00000   0.00000   0.00000  -0.00056
  20        8D-1        0.00000   0.00000   0.00000   0.00000   0.00000
  21        8D+2        0.00000   0.00000  -0.00038  -0.00023   0.00000
  22        8D-2        0.00000   0.00000   0.00000   0.00000   0.00000
  23 2   Ir 1S          0.00000   0.00012   0.00000   0.00000   0.00000
  24        2S          0.00000  -0.00002   0.00000   0.00000   0.00000
  25        3S          0.00000   0.00455   0.00000   0.00000   0.00000
  26        4PX        -0.00002   0.00000   0.00000   0.00000  -0.00129
  27        4PY         0.00000   0.00000   0.00000   0.00000   0.00000
  28        4PZ         0.00000   0.00023   0.00000   0.00000   0.00000
  29        5PX        -0.00039   0.00000   0.00000   0.00000  -0.01760
  30        5PY         0.00000   0.00000   0.00000   0.00000   0.00000
  31        5PZ         0.00000   0.00324   0.00000   0.00000   0.00000
  32        6PX         0.00006   0.00000   0.00000   0.00000  -0.00373
  33        6PY         0.00000   0.00000   0.00000   0.00000   0.00000
  34        6PZ         0.00000   0.00010   0.00000   0.00000   0.00000
  35        7D 0        0.00000  -0.00007   0.00000   0.00000   0.00000
  36        7D+1        0.00001   0.00000   0.00000   0.00000   0.00002
  37        7D-1        0.00000   0.00000   0.00000   0.00000   0.00000
  38        7D+2        0.00000   0.00000   0.00005   0.00067   0.00000
  39        7D-2        0.00000   0.00000   0.00000   0.00000   0.00000
  40        8D 0        0.00000   0.00089   0.00000   0.00000   0.00000
  41        8D+1       -0.00028   0.00000   0.00000   0.00000   0.00020
  42        8D-1        0.00000   0.00000   0.00000   0.00000   0.00000
  43        8D+2        0.00000   0.00000  -0.00029   0.00086   0.00000
  44        8D-2        0.00000   0.00000   0.00000   0.00000   0.00000
  45 3   Cl 1S          0.00000   0.09945  -0.16921   0.11669   0.00000
  46        2S          0.00000   0.00126  -0.00216  -0.41986   0.00000
  47        2PX        -0.00001   0.00000   0.00000   0.00000  -0.00008
  48        2PY         0.00000   0.00000   0.00001   0.00148   0.00000
  49        2PZ         0.00000   0.00000   0.00001  -0.00034   0.00000
  50        3S          0.00000  -0.00045   0.00072  -0.01764   0.00000
  51        3PX         0.00003   0.00000   0.00000   0.00000   0.00044
  52        3PY         0.00000   0.00000  -0.00003   0.00108   0.00000
  53        3PZ         0.00000   0.00000  -0.00007  -0.00056   0.00000
  54        4S          0.00000   0.00041  -0.00049   0.00972   0.00000
  55        4PX        -0.00007   0.00000   0.00000   0.00000   0.00037
  56        4PY         0.00000  -0.00021   0.00018  -0.00280   0.00000
  57        4PZ         0.00000   0.00003   0.00012   0.00134   0.00000
  58        5D 0        0.00000  -0.00002   0.00003  -0.00008   0.00000
  59        5D+1       -0.00001   0.00000   0.00000   0.00000   0.00009
  60        5D-1        0.00000  -0.00001   0.00001  -0.00004   0.00000
  61        5D+2        0.00000  -0.00003   0.00002   0.00004   0.00000
  62        5D-2       -0.00001   0.00000   0.00000   0.00000  -0.00014
  63 4   Cl 1S          0.17987   0.09930   0.16926  -0.11670  -0.17385
  64        2S          0.00230   0.00126   0.00216   0.41990   0.62571
  65        2PX         0.00001   0.00000   0.00001   0.00148   0.00233
  66        2PY         0.00000   0.00000   0.00000   0.00000   0.00000
  67        2PZ        -0.00001   0.00000  -0.00001   0.00034   0.00056
  68        3S         -0.00078  -0.00045  -0.00072   0.01765   0.02703
  69        3PX        -0.00001   0.00000  -0.00003   0.00108   0.00087
  70        3PY         0.00000   0.00000   0.00000   0.00000   0.00000
  71        3PZ         0.00004   0.00000   0.00007   0.00056   0.00052
  72        4S          0.00048   0.00041   0.00049  -0.00972  -0.02162
  73        4PX         0.00003   0.00021   0.00018  -0.00280  -0.00610
  74        4PY         0.00000   0.00000   0.00000   0.00000   0.00000
  75        4PZ        -0.00008   0.00003  -0.00012  -0.00134  -0.00226
  76        5D 0       -0.00002  -0.00002  -0.00003   0.00008   0.00015
  77        5D+1       -0.00001   0.00001   0.00001  -0.00004  -0.00020
  78        5D-1        0.00000   0.00000   0.00000   0.00000   0.00000
  79        5D+2        0.00001   0.00003   0.00002   0.00004  -0.00020
  80        5D-2        0.00000   0.00000   0.00000   0.00000   0.00000
  81 5   Cl 1S         -0.17987   0.09930   0.16926  -0.11670   0.17385
  82        2S         -0.00230   0.00126   0.00216   0.41990  -0.62571
  83        2PX         0.00001   0.00000  -0.00001  -0.00148   0.00233
  84        2PY         0.00000   0.00000   0.00000   0.00000   0.00000
  85        2PZ         0.00001   0.00000  -0.00001   0.00034  -0.00056
  86        3S          0.00078  -0.00045  -0.00072   0.01765  -0.02703
  87        3PX        -0.00001   0.00000   0.00003  -0.00108   0.00087
  88        3PY         0.00000   0.00000   0.00000   0.00000   0.00000
  89        3PZ        -0.00004   0.00000   0.00007   0.00056  -0.00052
  90        4S         -0.00048   0.00041   0.00049  -0.00972   0.02162
  91        4PX         0.00003  -0.00021  -0.00018   0.00280  -0.00610
  92        4PY         0.00000   0.00000   0.00000   0.00000   0.00000
  93        4PZ         0.00008   0.00003  -0.00012  -0.00134   0.00226
  94        5D 0        0.00002  -0.00002  -0.00003   0.00008  -0.00015
  95        5D+1       -0.00001  -0.00001  -0.00001   0.00004  -0.00020
  96        5D-1        0.00000   0.00000   0.00000   0.00000   0.00000
  97        5D+2       -0.00001   0.00003   0.00002   0.00004   0.00020
  98        5D-2        0.00000   0.00000   0.00000   0.00000   0.00000
  99 6   Cl 1S          0.00000   0.09945  -0.16921   0.11669   0.00000
 100        2S          0.00000   0.00126  -0.00216  -0.41986   0.00000
 101        2PX        -0.00001   0.00000   0.00000   0.00000  -0.00008
 102        2PY         0.00000   0.00000  -0.00001  -0.00148   0.00000
 103        2PZ         0.00000   0.00000   0.00001  -0.00034   0.00000
 104        3S          0.00000  -0.00045   0.00072  -0.01764   0.00000
 105        3PX         0.00003   0.00000   0.00000   0.00000   0.00044
 106        3PY         0.00000   0.00000   0.00003  -0.00108   0.00000
 107        3PZ         0.00000   0.00000  -0.00007  -0.00056   0.00000
 108        4S          0.00000   0.00041  -0.00049   0.00972   0.00000
 109        4PX        -0.00007   0.00000   0.00000   0.00000   0.00037
 110        4PY         0.00000   0.00021  -0.00018   0.00280   0.00000
 111        4PZ         0.00000   0.00003   0.00012   0.00134   0.00000
 112        5D 0        0.00000  -0.00002   0.00003  -0.00008   0.00000
 113        5D+1       -0.00001   0.00000   0.00000   0.00000   0.00009
 114        5D-1        0.00000   0.00001  -0.00001   0.00004   0.00000
 115        5D+2        0.00000  -0.00003   0.00002   0.00004   0.00000
 116        5D-2        0.00001   0.00000   0.00000   0.00000   0.00014
 117 7   Cl 1S          0.00000   0.48840  -0.46843  -0.08232   0.00000
 118        2S          0.00000   0.00620  -0.00597   0.29623   0.00000
 119        2PX         0.00001   0.00000   0.00000   0.00000   0.00007
 120        2PY         0.00000  -0.00003   0.00004  -0.00103   0.00000
 121        2PZ         0.00000  -0.00001   0.00001  -0.00020   0.00000
 122        3S          0.00000  -0.00263   0.00236   0.01279   0.00000
 123        3PX        -0.00006   0.00000   0.00000   0.00000  -0.00041
 124        3PY         0.00000   0.00010  -0.00017  -0.00084   0.00000
 125        3PZ         0.00000   0.00003  -0.00002  -0.00060   0.00000
 126        4S          0.00000   0.00307  -0.00176  -0.00724   0.00000
 127        4PX        -0.00012   0.00000   0.00000   0.00000  -0.00010
 128        4PY         0.00000  -0.00075   0.00058   0.00203   0.00000
 129        4PZ         0.00000  -0.00033   0.00010   0.00136   0.00000
 130        5D 0        0.00000   0.00000   0.00004   0.00003   0.00000
 131        5D+1        0.00003   0.00000   0.00000   0.00000   0.00004
 132        5D-1        0.00000   0.00005  -0.00002  -0.00003   0.00000
 133        5D+2        0.00000  -0.00004   0.00003  -0.00004   0.00000
 134        5D-2        0.00003   0.00000   0.00000   0.00000   0.00012
 135 8   Cl 1S          0.68127   0.48805   0.46881   0.08232   0.10276
 136        2S          0.00866   0.00620   0.00598  -0.29623  -0.36995
 137        2PX         0.00004   0.00003   0.00004  -0.00103  -0.00137
 138        2PY         0.00000   0.00000   0.00000   0.00000   0.00000
 139        2PZ        -0.00001  -0.00001  -0.00001   0.00020   0.00031
 140        3S         -0.00366  -0.00263  -0.00236  -0.01279  -0.01656
 141        3PX        -0.00012  -0.00010  -0.00017  -0.00084  -0.00058
 142        3PY         0.00000   0.00000   0.00000   0.00000   0.00000
 143        3PZ         0.00005   0.00003   0.00002   0.00060   0.00047
 144        4S          0.00391   0.00306   0.00177   0.00724   0.01449
 145        4PX         0.00110   0.00075   0.00058   0.00203   0.00442
 146        4PY         0.00000   0.00000   0.00000   0.00000   0.00000
 147        4PZ        -0.00034  -0.00033  -0.00010  -0.00136  -0.00187
 148        5D 0       -0.00005   0.00000  -0.00004  -0.00003  -0.00007
 149        5D+1       -0.00004  -0.00005  -0.00002  -0.00003  -0.00017
 150        5D-1        0.00000   0.00000   0.00000   0.00000   0.00000
 151        5D+2        0.00009   0.00004   0.00003  -0.00004   0.00016
 152        5D-2        0.00000   0.00000   0.00000   0.00000   0.00000
 153 9   Cl 1S         -0.68127   0.48805   0.46881   0.08232  -0.10276
 154        2S         -0.00866   0.00620   0.00598  -0.29623   0.36995
 155        2PX         0.00004  -0.00003  -0.00004   0.00103  -0.00137
 156        2PY         0.00000   0.00000   0.00000   0.00000   0.00000
 157        2PZ         0.00001  -0.00001  -0.00001   0.00020  -0.00031
 158        3S          0.00366  -0.00263  -0.00236  -0.01279   0.01656
 159        3PX        -0.00012   0.00010   0.00017   0.00084  -0.00058
 160        3PY         0.00000   0.00000   0.00000   0.00000   0.00000
 161        3PZ        -0.00005   0.00003   0.00002   0.00060  -0.00047
 162        4S         -0.00391   0.00306   0.00177   0.00724  -0.01449
 163        4PX         0.00110  -0.00075  -0.00058  -0.00203   0.00442
 164        4PY         0.00000   0.00000   0.00000   0.00000   0.00000
 165        4PZ         0.00034  -0.00033  -0.00010  -0.00136   0.00187
 166        5D 0        0.00005   0.00000  -0.00004  -0.00003   0.00007
 167        5D+1       -0.00004   0.00005   0.00002   0.00003  -0.00017
 168        5D-1        0.00000   0.00000   0.00000   0.00000   0.00000
 169        5D+2       -0.00009   0.00004   0.00003  -0.00004  -0.00016
 170        5D-2        0.00000   0.00000   0.00000   0.00000   0.00000
 171 10  Cl 1S          0.00000   0.48840  -0.46843  -0.08232   0.00000
 172        2S          0.00000   0.00620  -0.00597   0.29623   0.00000
 173        2PX         0.00001   0.00000   0.00000   0.00000   0.00007
 174        2PY         0.00000   0.00003  -0.00004   0.00103   0.00000
 175        2PZ         0.00000  -0.00001   0.00001  -0.00020   0.00000
 176        3S          0.00000  -0.00263   0.00236   0.01279   0.00000
 177        3PX        -0.00006   0.00000   0.00000   0.00000  -0.00041
 178        3PY         0.00000  -0.00010   0.00017   0.00084   0.00000
 179        3PZ         0.00000   0.00003  -0.00002  -0.00060   0.00000
 180        4S          0.00000   0.00307  -0.00176  -0.00724   0.00000
 181        4PX        -0.00012   0.00000   0.00000   0.00000  -0.00010
 182        4PY         0.00000   0.00075  -0.00058  -0.00203   0.00000
 183        4PZ         0.00000  -0.00033   0.00010   0.00136   0.00000
 184        5D 0        0.00000   0.00000   0.00004   0.00003   0.00000
 185        5D+1        0.00003   0.00000   0.00000   0.00000   0.00004
 186        5D-1        0.00000  -0.00005   0.00002   0.00003   0.00000
 187        5D+2        0.00000  -0.00004   0.00003  -0.00004   0.00000
 188        5D-2       -0.00003   0.00000   0.00000   0.00000  -0.00012
                          11        12        13        14        15
                        (E)--O    (A1)--O   (E)--O    (E)--O    (A1)--O
     Eigenvalues --    -9.50532  -9.50529  -9.50524  -9.50524  -9.50523
   1 1   Ir 1S          0.00000  -0.00017   0.00000   0.00000  -0.00101
   2        2S          0.00000   0.00102   0.00000   0.00000  -0.00142
   3        3S          0.00000  -0.05303   0.00000   0.00000   0.03347
   4        4PX         0.00000   0.00000   0.00000  -0.00084   0.00000
   5        4PY        -0.00101   0.00000   0.00084   0.00000   0.00000
   6        4PZ         0.00000   0.00188   0.00000   0.00000  -0.00048
   7        5PX         0.00000   0.00000   0.00000  -0.01121   0.00000
   8        5PY        -0.01395   0.00000   0.01121   0.00000   0.00000
   9        5PZ         0.00000   0.02500   0.00000   0.00000  -0.00463
  10        6PX         0.00000   0.00000   0.00000  -0.00301   0.00000
  11        6PY        -0.00260   0.00000   0.00301   0.00000   0.00000
  12        6PZ         0.00000   0.00245   0.00000   0.00000  -0.00269
  13        7D 0        0.00000   0.00036   0.00000   0.00000   0.00029
  14        7D+1        0.00000   0.00000   0.00000   0.00002   0.00000
  15        7D-1       -0.00004   0.00000  -0.00002   0.00000   0.00000
  16        7D+2        0.00000   0.00000   0.00000   0.00000   0.00000
  17        7D-2        0.00000   0.00000   0.00000   0.00000   0.00000
  18        8D 0        0.00000  -0.00546   0.00000   0.00000  -0.00117
  19        8D+1        0.00000   0.00000   0.00000  -0.00142   0.00000
  20        8D-1        0.00056   0.00000   0.00142   0.00000   0.00000
  21        8D+2        0.00000   0.00000   0.00000   0.00000   0.00000
  22        8D-2        0.00000   0.00000   0.00000   0.00000   0.00000
  23 2   Ir 1S          0.00000  -0.00046   0.00000   0.00000  -0.00092
  24        2S          0.00000  -0.00166   0.00000   0.00000  -0.00055
  25        3S          0.00000   0.06255   0.00000   0.00000  -0.00432
  26        4PX         0.00000   0.00000   0.00000  -0.00025   0.00000
  27        4PY         0.00129   0.00000   0.00025   0.00000   0.00000
  28        4PZ         0.00000   0.00180   0.00000   0.00000  -0.00072
  29        5PX         0.00000   0.00000   0.00000  -0.00309   0.00000
  30        5PY         0.01760   0.00000   0.00309   0.00000   0.00000
  31        5PZ         0.00000   0.02290   0.00000   0.00000  -0.01102
  32        6PX         0.00000   0.00000   0.00000  -0.00139   0.00000
  33        6PY         0.00373   0.00000   0.00139   0.00000   0.00000
  34        6PZ         0.00000   0.00356   0.00000   0.00000   0.00072
  35        7D 0        0.00000  -0.00012   0.00000   0.00000   0.00044
  36        7D+1        0.00000   0.00000   0.00000  -0.00003   0.00000
  37        7D-1       -0.00002   0.00000   0.00003   0.00000   0.00000
  38        7D+2        0.00000   0.00000   0.00000   0.00000   0.00000
  39        7D-2        0.00000   0.00000   0.00000   0.00000   0.00000
  40        8D 0        0.00000   0.00372   0.00000   0.00000  -0.00416
  41        8D+1        0.00000   0.00000   0.00000   0.00151   0.00000
  42        8D-1       -0.00020   0.00000  -0.00151   0.00000   0.00000
  43        8D+2        0.00000   0.00000   0.00000   0.00000   0.00000
  44        8D-2        0.00000   0.00000   0.00000   0.00000   0.00000
  45 3   Cl 1S         -0.17384  -0.12739  -0.10282   0.00000  -0.06460
  46        2S          0.62569   0.45841   0.36989   0.00000   0.23243
  47        2PX         0.00000   0.00000   0.00000   0.00001   0.00000
  48        2PY        -0.00233  -0.00168  -0.00140   0.00000  -0.00088
  49        2PZ         0.00056   0.00044   0.00039   0.00000   0.00023
  50        3S          0.02703   0.01929   0.01478   0.00000   0.00936
  51        3PX         0.00000   0.00000   0.00000  -0.00006   0.00000
  52        3PY        -0.00087  -0.00075  -0.00038   0.00000  -0.00024
  53        3PZ         0.00052   0.00024  -0.00004   0.00000   0.00004
  54        4S         -0.02162  -0.01507  -0.00927   0.00000  -0.00695
  55        4PX         0.00000   0.00000   0.00000   0.00049   0.00000
  56        4PY         0.00610   0.00293   0.00194   0.00000   0.00220
  57        4PZ        -0.00226  -0.00159  -0.00022   0.00000  -0.00058
  58        5D 0        0.00015  -0.00009   0.00012   0.00000   0.00008
  59        5D+1        0.00000   0.00000   0.00000   0.00007   0.00000
  60        5D-1        0.00020   0.00016   0.00002   0.00000   0.00008
  61        5D+2        0.00020  -0.00008   0.00003   0.00000   0.00013
  62        5D-2        0.00000   0.00000   0.00000  -0.00001   0.00000
  63 4   Cl 1S          0.00000  -0.12738   0.00000  -0.10281  -0.06459
  64        2S          0.00000   0.45839   0.00000   0.36986   0.23238
  65        2PX         0.00000   0.00168   0.00000   0.00140   0.00088
  66        2PY         0.00008   0.00000  -0.00001   0.00000   0.00000
  67        2PZ         0.00000   0.00044   0.00000   0.00039   0.00023
  68        3S          0.00000   0.01928   0.00000   0.01477   0.00935
  69        3PX         0.00000   0.00075   0.00000   0.00038   0.00023
  70        3PY        -0.00044   0.00000   0.00006   0.00000   0.00000
  71        3PZ         0.00000   0.00024   0.00000  -0.00004   0.00004
  72        4S          0.00000  -0.01507   0.00000  -0.00927  -0.00695
  73        4PX         0.00000  -0.00293   0.00000  -0.00194  -0.00219
  74        4PY        -0.00037   0.00000  -0.00049   0.00000   0.00000
  75        4PZ         0.00000  -0.00159   0.00000  -0.00022  -0.00058
  76        5D 0        0.00000  -0.00009   0.00000   0.00012   0.00008
  77        5D+1        0.00000  -0.00016   0.00000  -0.00002  -0.00008
  78        5D-1       -0.00009   0.00000  -0.00007   0.00000   0.00000
  79        5D+2        0.00000   0.00008   0.00000  -0.00003  -0.00013
  80        5D-2       -0.00014   0.00000  -0.00001   0.00000   0.00000
  81 5   Cl 1S          0.00000  -0.12738   0.00000   0.10281  -0.06459
  82        2S          0.00000   0.45839   0.00000  -0.36986   0.23238
  83        2PX         0.00000  -0.00168   0.00000   0.00140  -0.00088
  84        2PY         0.00008   0.00000  -0.00001   0.00000   0.00000
  85        2PZ         0.00000   0.00044   0.00000  -0.00039   0.00023
  86        3S          0.00000   0.01928   0.00000  -0.01477   0.00935
  87        3PX         0.00000  -0.00075   0.00000   0.00038  -0.00023
  88        3PY        -0.00044   0.00000   0.00006   0.00000   0.00000
  89        3PZ         0.00000   0.00024   0.00000   0.00004   0.00004
  90        4S          0.00000  -0.01507   0.00000   0.00927  -0.00695
  91        4PX         0.00000   0.00293   0.00000  -0.00194   0.00219
  92        4PY        -0.00037   0.00000  -0.00049   0.00000   0.00000
  93        4PZ         0.00000  -0.00159   0.00000   0.00022  -0.00058
  94        5D 0        0.00000  -0.00009   0.00000  -0.00012   0.00008
  95        5D+1        0.00000   0.00016   0.00000  -0.00002   0.00008
  96        5D-1       -0.00009   0.00000  -0.00007   0.00000   0.00000
  97        5D+2        0.00000   0.00008   0.00000   0.00003  -0.00013
  98        5D-2        0.00014   0.00000   0.00001   0.00000   0.00000
  99 6   Cl 1S          0.17384  -0.12739   0.10282   0.00000  -0.06460
 100        2S         -0.62569   0.45841  -0.36989   0.00000   0.23243
 101        2PX         0.00000   0.00000   0.00000   0.00001   0.00000
 102        2PY        -0.00233   0.00168  -0.00140   0.00000   0.00088
 103        2PZ        -0.00056   0.00044  -0.00039   0.00000   0.00023
 104        3S         -0.02703   0.01929  -0.01478   0.00000   0.00936
 105        3PX         0.00000   0.00000   0.00000  -0.00006   0.00000
 106        3PY        -0.00087   0.00075  -0.00038   0.00000   0.00024
 107        3PZ        -0.00052   0.00024   0.00004   0.00000   0.00004
 108        4S          0.02162  -0.01507   0.00927   0.00000  -0.00695
 109        4PX         0.00000   0.00000   0.00000   0.00049   0.00000
 110        4PY         0.00610  -0.00293   0.00194   0.00000  -0.00220
 111        4PZ         0.00226  -0.00159   0.00022   0.00000  -0.00058
 112        5D 0       -0.00015  -0.00009  -0.00012   0.00000   0.00008
 113        5D+1        0.00000   0.00000   0.00000   0.00007   0.00000
 114        5D-1        0.00020  -0.00016   0.00002   0.00000  -0.00008
 115        5D+2       -0.00020  -0.00008  -0.00003   0.00000   0.00013
 116        5D-2        0.00000   0.00000   0.00000   0.00001   0.00000
 117 7   Cl 1S          0.10277   0.06458  -0.17387   0.00000  -0.12740
 118        2S         -0.36998  -0.23242   0.62564   0.00000   0.45842
 119        2PX         0.00000   0.00000   0.00000  -0.00003   0.00000
 120        2PY         0.00137   0.00084  -0.00235   0.00000  -0.00170
 121        2PZ         0.00031   0.00022  -0.00061   0.00000  -0.00045
 122        3S         -0.01656  -0.01003   0.02598   0.00000   0.01895
 123        3PX         0.00000   0.00000   0.00000   0.00016   0.00000
 124        3PY         0.00058   0.00047  -0.00075   0.00000  -0.00063
 125        3PZ         0.00047   0.00017  -0.00022   0.00000  -0.00017
 126        4S          0.01449   0.00806  -0.01855   0.00000  -0.01452
 127        4PX         0.00000   0.00000   0.00000   0.00061   0.00000
 128        4PY        -0.00442  -0.00107   0.00465   0.00000   0.00351
 129        4PZ        -0.00187  -0.00094   0.00128   0.00000   0.00140
 130        5D 0       -0.00007   0.00012   0.00018   0.00000   0.00001
 131        5D+1        0.00000   0.00000   0.00000  -0.00011   0.00000
 132        5D-1        0.00017   0.00008  -0.00011   0.00000  -0.00016
 133        5D+2       -0.00016   0.00014   0.00012   0.00000   0.00005
 134        5D-2        0.00000   0.00000   0.00000  -0.00008   0.00000
 135 8   Cl 1S          0.00000   0.06457   0.00000  -0.17388  -0.12739
 136        2S          0.00000  -0.23238   0.00000   0.62565   0.45839
 137        2PX         0.00000  -0.00084   0.00000   0.00235   0.00170
 138        2PY        -0.00007   0.00000   0.00003   0.00000   0.00000
 139        2PZ         0.00000   0.00022   0.00000  -0.00061  -0.00045
 140        3S          0.00000  -0.01003   0.00000   0.02598   0.01894
 141        3PX         0.00000  -0.00047   0.00000   0.00075   0.00063
 142        3PY         0.00041   0.00000  -0.00016   0.00000   0.00000
 143        3PZ         0.00000   0.00017   0.00000  -0.00022  -0.00017
 144        4S          0.00000   0.00805   0.00000  -0.01855  -0.01452
 145        4PX         0.00000   0.00107   0.00000  -0.00465  -0.00351
 146        4PY         0.00010   0.00000  -0.00061   0.00000   0.00000
 147        4PZ         0.00000  -0.00094   0.00000   0.00128   0.00140
 148        5D 0        0.00000   0.00012   0.00000   0.00018   0.00001
 149        5D+1        0.00000  -0.00008   0.00000   0.00011   0.00016
 150        5D-1       -0.00004   0.00000   0.00011   0.00000   0.00000
 151        5D+2        0.00000  -0.00014   0.00000  -0.00012  -0.00005
 152        5D-2        0.00012   0.00000  -0.00008   0.00000   0.00000
 153 9   Cl 1S          0.00000   0.06457   0.00000   0.17388  -0.12739
 154        2S          0.00000  -0.23238   0.00000  -0.62565   0.45839
 155        2PX         0.00000   0.00084   0.00000   0.00235  -0.00170
 156        2PY        -0.00007   0.00000   0.00003   0.00000   0.00000
 157        2PZ         0.00000   0.00022   0.00000   0.00061  -0.00045
 158        3S          0.00000  -0.01003   0.00000  -0.02598   0.01894
 159        3PX         0.00000   0.00047   0.00000   0.00075  -0.00063
 160        3PY         0.00041   0.00000  -0.00016   0.00000   0.00000
 161        3PZ         0.00000   0.00017   0.00000   0.00022  -0.00017
 162        4S          0.00000   0.00805   0.00000   0.01855  -0.01452
 163        4PX         0.00000  -0.00107   0.00000  -0.00465   0.00351
 164        4PY         0.00010   0.00000  -0.00061   0.00000   0.00000
 165        4PZ         0.00000  -0.00094   0.00000  -0.00128   0.00140
 166        5D 0        0.00000   0.00012   0.00000  -0.00018   0.00001
 167        5D+1        0.00000   0.00008   0.00000   0.00011  -0.00016
 168        5D-1       -0.00004   0.00000   0.00011   0.00000   0.00000
 169        5D+2        0.00000  -0.00014   0.00000   0.00012  -0.00005
 170        5D-2       -0.00012   0.00000   0.00008   0.00000   0.00000
 171 10  Cl 1S         -0.10277   0.06458   0.17387   0.00000  -0.12740
 172        2S          0.36998  -0.23242  -0.62564   0.00000   0.45842
 173        2PX         0.00000   0.00000   0.00000  -0.00003   0.00000
 174        2PY         0.00137  -0.00084  -0.00235   0.00000   0.00170
 175        2PZ        -0.00031   0.00022   0.00061   0.00000  -0.00045
 176        3S          0.01656  -0.01003  -0.02598   0.00000   0.01895
 177        3PX         0.00000   0.00000   0.00000   0.00016   0.00000
 178        3PY         0.00058  -0.00047  -0.00075   0.00000   0.00063
 179        3PZ        -0.00047   0.00017   0.00022   0.00000  -0.00017
 180        4S         -0.01449   0.00806   0.01855   0.00000  -0.01452
 181        4PX         0.00000   0.00000   0.00000   0.00061   0.00000
 182        4PY        -0.00442   0.00107   0.00465   0.00000  -0.00351
 183        4PZ         0.00187  -0.00094  -0.00128   0.00000   0.00140
 184        5D 0        0.00007   0.00012  -0.00018   0.00000   0.00001
 185        5D+1        0.00000   0.00000   0.00000  -0.00011   0.00000
 186        5D-1        0.00017  -0.00008  -0.00011   0.00000   0.00016
 187        5D+2        0.00016   0.00014  -0.00012   0.00000   0.00005
 188        5D-2        0.00000   0.00000   0.00000   0.00008   0.00000
                          16        17        18        19        20
                        (B2)--O   (B2)--O   (A1)--O   (E)--O    (E)--O
     Eigenvalues --    -9.50521  -7.26704  -7.26700  -7.26699  -7.26699
   1 1   Ir 1S          0.00000   0.00000   0.00044   0.00000   0.00000
   2        2S          0.00000   0.00000   0.00034   0.00000   0.00000
   3        3S          0.00000   0.00000   0.01669   0.00000   0.00000
   4        4PX         0.00000   0.00000   0.00000   0.00020   0.00000
   5        4PY         0.00000   0.00000   0.00000   0.00000   0.00020
   6        4PZ         0.00000   0.00000  -0.00105   0.00000   0.00000
   7        5PX         0.00000   0.00000   0.00000  -0.00083   0.00000
   8        5PY         0.00000   0.00000   0.00000   0.00000  -0.00083
   9        5PZ         0.00000   0.00000  -0.00574   0.00000   0.00000
  10        6PX         0.00000   0.00000   0.00000  -0.00173   0.00000
  11        6PY         0.00000   0.00000   0.00000   0.00000  -0.00173
  12        6PZ         0.00000   0.00000  -0.00204   0.00000   0.00000
  13        7D 0        0.00000   0.00000   0.00019   0.00000   0.00000
  14        7D+1        0.00000   0.00000   0.00000  -0.00019   0.00000
  15        7D-1        0.00000   0.00000   0.00000   0.00000  -0.00019
  16        7D+2        0.00013  -0.00127   0.00000   0.00000   0.00000
  17        7D-2        0.00000   0.00000   0.00000   0.00000   0.00000
  18        8D 0        0.00000   0.00000   0.00093   0.00000   0.00000
  19        8D+1        0.00000   0.00000   0.00000   0.00067   0.00000
  20        8D-1        0.00000   0.00000   0.00000   0.00000   0.00067
  21        8D+2        0.00190   0.00872   0.00000   0.00000   0.00000
  22        8D-2        0.00000   0.00000   0.00000   0.00000   0.00000
  23 2   Ir 1S          0.00000   0.00000   0.00029   0.00000   0.00000
  24        2S          0.00000   0.00000  -0.00101   0.00000   0.00000
  25        3S          0.00000   0.00000  -0.01545   0.00000   0.00000
  26        4PX         0.00000   0.00000   0.00000  -0.00078   0.00000
  27        4PY         0.00000   0.00000   0.00000   0.00000  -0.00078
  28        4PZ         0.00000   0.00000  -0.00020   0.00000   0.00000
  29        5PX         0.00000   0.00000   0.00000  -0.00141   0.00000
  30        5PY         0.00000   0.00000   0.00000   0.00000  -0.00141
  31        5PZ         0.00000   0.00000  -0.00727   0.00000   0.00000
  32        6PX         0.00000   0.00000   0.00000   0.00404   0.00000
  33        6PY         0.00000   0.00000   0.00000   0.00000   0.00404
  34        6PZ         0.00000   0.00000  -0.00163   0.00000   0.00000
  35        7D 0        0.00000   0.00000   0.00036   0.00000   0.00000
  36        7D+1        0.00000   0.00000   0.00000  -0.00007   0.00000
  37        7D-1        0.00000   0.00000   0.00000   0.00000  -0.00007
  38        7D+2       -0.00010   0.00128   0.00000   0.00000   0.00000
  39        7D-2        0.00000   0.00000   0.00000   0.00000   0.00000
  40        8D 0        0.00000   0.00000  -0.00425   0.00000   0.00000
  41        8D+1        0.00000   0.00000   0.00000  -0.00016   0.00000
  42        8D-1        0.00000   0.00000   0.00000   0.00000  -0.00016
  43        8D+2        0.00174  -0.00951   0.00000   0.00000   0.00000
  44        8D-2        0.00000   0.00000   0.00000   0.00000   0.00000
  45 3   Cl 1S          0.08236  -0.00055  -0.00062   0.00000  -0.00087
  46        2S         -0.29622   0.00197   0.00226   0.00000   0.00315
  47        2PX         0.00000   0.00000   0.00000   0.00036   0.00000
  48        2PY         0.00108   0.41784   0.48667   0.00000   0.69072
  49        2PZ        -0.00034  -0.05795  -0.06647   0.00000  -0.09568
  50        3S         -0.01142  -0.00086  -0.00050   0.00000  -0.00064
  51        3PX         0.00000   0.00000   0.00000   0.00036   0.00000
  52        3PY         0.00052   0.01349   0.01491   0.00000   0.02119
  53        3PZ         0.00021  -0.00198  -0.00207   0.00000  -0.00319
  54        4S          0.00572  -0.00228   0.00036   0.00000   0.00038
  55        4PX         0.00000   0.00000   0.00000  -0.00151   0.00000
  56        4PY        -0.00180  -0.00264  -0.00413   0.00000  -0.00755
  57        4PZ        -0.00030  -0.00033   0.00059   0.00000   0.00169
  58        5D 0       -0.00014   0.00009   0.00022   0.00000   0.00012
  59        5D+1        0.00000   0.00000   0.00000   0.00001   0.00000
  60        5D-1       -0.00005   0.00037   0.00016   0.00000   0.00003
  61        5D+2       -0.00001   0.00052   0.00025   0.00000   0.00021
  62        5D-2        0.00000   0.00000   0.00000   0.00026   0.00000
  63 4   Cl 1S         -0.08236   0.00055  -0.00062   0.00087   0.00000
  64        2S          0.29622  -0.00198   0.00226  -0.00315   0.00000
  65        2PX         0.00108   0.41789  -0.48664   0.69072   0.00000
  66        2PY         0.00000   0.00000   0.00000   0.00000   0.00036
  67        2PZ         0.00034   0.05796  -0.06646   0.09568   0.00000
  68        3S          0.01142   0.00086  -0.00050   0.00064   0.00000
  69        3PX         0.00052   0.01350  -0.01491   0.02119   0.00000
  70        3PY         0.00000   0.00000   0.00000   0.00000   0.00036
  71        3PZ        -0.00021   0.00198  -0.00207   0.00319   0.00000
  72        4S         -0.00572   0.00228   0.00036  -0.00038   0.00000
  73        4PX        -0.00180  -0.00264   0.00413  -0.00755   0.00000
  74        4PY         0.00000   0.00000   0.00000   0.00000  -0.00151
  75        4PZ         0.00030   0.00033   0.00059  -0.00169   0.00000
  76        5D 0        0.00014  -0.00009   0.00022  -0.00012   0.00000
  77        5D+1       -0.00005   0.00037  -0.00016   0.00003   0.00000
  78        5D-1        0.00000   0.00000   0.00000   0.00000   0.00001
  79        5D+2       -0.00001   0.00052  -0.00025   0.00021   0.00000
  80        5D-2        0.00000   0.00000   0.00000   0.00000  -0.00026
  81 5   Cl 1S         -0.08236   0.00055  -0.00062  -0.00087   0.00000
  82        2S          0.29622  -0.00198   0.00226   0.00315   0.00000
  83        2PX        -0.00108  -0.41789   0.48664   0.69072   0.00000
  84        2PY         0.00000   0.00000   0.00000   0.00000   0.00036
  85        2PZ         0.00034   0.05796  -0.06646  -0.09568   0.00000
  86        3S          0.01142   0.00086  -0.00050  -0.00064   0.00000
  87        3PX        -0.00052  -0.01350   0.01491   0.02119   0.00000
  88        3PY         0.00000   0.00000   0.00000   0.00000   0.00036
  89        3PZ        -0.00021   0.00198  -0.00207  -0.00319   0.00000
  90        4S         -0.00572   0.00228   0.00036   0.00038   0.00000
  91        4PX         0.00180   0.00264  -0.00413  -0.00755   0.00000
  92        4PY         0.00000   0.00000   0.00000   0.00000  -0.00151
  93        4PZ         0.00030   0.00033   0.00059   0.00169   0.00000
  94        5D 0        0.00014  -0.00009   0.00022   0.00012   0.00000
  95        5D+1        0.00005  -0.00037   0.00016   0.00003   0.00000
  96        5D-1        0.00000   0.00000   0.00000   0.00000   0.00001
  97        5D+2       -0.00001   0.00052  -0.00025  -0.00021   0.00000
  98        5D-2        0.00000   0.00000   0.00000   0.00000   0.00026
  99 6   Cl 1S          0.08236  -0.00055  -0.00062   0.00000   0.00087
 100        2S         -0.29622   0.00197   0.00226   0.00000  -0.00315
 101        2PX         0.00000   0.00000   0.00000   0.00036   0.00000
 102        2PY        -0.00108  -0.41784  -0.48667   0.00000   0.69072
 103        2PZ        -0.00034  -0.05795  -0.06647   0.00000   0.09568
 104        3S         -0.01142  -0.00086  -0.00050   0.00000   0.00064
 105        3PX         0.00000   0.00000   0.00000   0.00036   0.00000
 106        3PY        -0.00052  -0.01349  -0.01491   0.00000   0.02119
 107        3PZ         0.00021  -0.00198  -0.00207   0.00000   0.00319
 108        4S          0.00572  -0.00228   0.00036   0.00000  -0.00038
 109        4PX         0.00000   0.00000   0.00000  -0.00151   0.00000
 110        4PY         0.00180   0.00264   0.00413   0.00000  -0.00755
 111        4PZ        -0.00030  -0.00033   0.00059   0.00000  -0.00169
 112        5D 0       -0.00014   0.00009   0.00022   0.00000  -0.00012
 113        5D+1        0.00000   0.00000   0.00000   0.00001   0.00000
 114        5D-1        0.00005  -0.00037  -0.00016   0.00000   0.00003
 115        5D+2       -0.00001   0.00052   0.00025   0.00000  -0.00021
 116        5D-2        0.00000   0.00000   0.00000  -0.00026   0.00000
 117 7   Cl 1S          0.11672   0.00034   0.00009   0.00000   0.00009
[...]
  66        2PY         1.99259
  67        2PZ         1.99032
  68        3S          1.44439
  69        3PX         1.05174
  70        3PY         1.35941
  71        3PZ         1.12944
  72        4S          0.47782
  73        4PX         0.34421
  74        4PY         0.59826
  75        4PZ         0.51383
  76        5D 0        0.00261
  77        5D+1        0.00441
  78        5D-1        0.00031
  79        5D+2        0.00561
  80        5D-2        0.00420
  81 5   Cl 1S          1.99965
  82        2S          1.99747
  83        2PX         1.98931
  84        2PY         1.99259
  85        2PZ         1.99032
  86        3S          1.44439
  87        3PX         1.05174
  88        3PY         1.35941
  89        3PZ         1.12944
  90        4S          0.47782
  91        4PX         0.34421
  92        4PY         0.59826
  93        4PZ         0.51383
  94        5D 0        0.00261
  95        5D+1        0.00441
  96        5D-1        0.00031
  97        5D+2        0.00561
  98        5D-2        0.00420
  99 6   Cl 1S          1.99965
 100        2S          1.99747
 101        2PX         1.99259
 102        2PY         1.98931
 103        2PZ         1.99032
 104        3S          1.44439
 105        3PX         1.35941
 106        3PY         1.05174
 107        3PZ         1.12944
 108        4S          0.47782
 109        4PX         0.59826
 110        4PY         0.34421
 111        4PZ         0.51383
 112        5D 0        0.00261
 113        5D+1        0.00031
 114        5D-1        0.00441
 115        5D+2        0.00561
 116        5D-2        0.00420
 117 7   Cl 1S          1.99965
 118        2S          1.99747
 119        2PX         1.99259
 120        2PY         1.98931
 121        2PZ         1.99032
 122        3S          1.44439
 123        3PX         1.35941
 124        3PY         1.05174
 125        3PZ         1.12944
 126        4S          0.47782
 127        4PX         0.59826
 128        4PY         0.34421
 129        4PZ         0.51383
 130        5D 0        0.00261
 131        5D+1        0.00031
 132        5D-1        0.00441
 133        5D+2        0.00561
 134        5D-2        0.00420
 135 8   Cl 1S          1.99965
 136        2S          1.99747
 137        2PX         1.98931
 138        2PY         1.99259
 139        2PZ         1.99032
 140        3S          1.44439
 141        3PX         1.05174
 142        3PY         1.35941
 143        3PZ         1.12944
 144        4S          0.47782
 145        4PX         0.34421
 146        4PY         0.59826
 147        4PZ         0.51383
 148        5D 0        0.00261
 149        5D+1        0.00441
 150        5D-1        0.00031
 151        5D+2        0.00561
 152        5D-2        0.00420
 153 9   Cl 1S          1.99965
 154        2S          1.99747
 155        2PX         1.98931
 156        2PY         1.99259
 157        2PZ         1.99032
 158        3S          1.44439
 159        3PX         1.05174
 160        3PY         1.35941
 161        3PZ         1.12944
 162        4S          0.47782
 163        4PX         0.34421
 164        4PY         0.59826
 165        4PZ         0.51383
 166        5D 0        0.00261
 167        5D+1        0.00441
 168        5D-1        0.00031
 169        5D+2        0.00561
 170        5D-2        0.00420
 171 10  Cl 1S          1.99965
 172        2S          1.99747
 173        2PX         1.99259
 174        2PY         1.98931
 175        2PZ         1.99032
 176        3S          1.44439
 177        3PX         1.35941
 178        3PY         1.05174
 179        3PZ         1.12944
 180        4S          0.47782
 181        4PX         0.59826
 182        4PY         0.34421
 183        4PZ         0.51383
 184        5D 0        0.00261
 185        5D+1        0.00031
 186        5D-1        0.00441
 187        5D+2        0.00561
 188        5D-2        0.00420
          Condensed to atoms (all electrons):
              1          2          3          4          5          6
     1  Ir  16.426195   0.105289  -0.030071  -0.030071  -0.030071  -0.030071
     2  Ir   0.105289  16.426196   0.241606   0.241606   0.241606   0.241606
     3  Cl  -0.030071   0.241606  16.752813  -0.039014  -0.039014  -0.003904
     4  Cl  -0.030071   0.241606  -0.039014  16.752813  -0.003904  -0.039014
     5  Cl  -0.030071   0.241606  -0.039014  -0.003904  16.752813  -0.039014
     6  Cl  -0.030071   0.241606  -0.003904  -0.039014  -0.039014  16.752813
     7  Cl   0.241606  -0.030071   0.021253   0.000930   0.000930   0.000064
     8  Cl   0.241606  -0.030071   0.000930   0.021253   0.000064   0.000930
     9  Cl   0.241606  -0.030071   0.000930   0.000064   0.021253   0.000930
    10  Cl   0.241606  -0.030071   0.000064   0.000930   0.000930   0.021253
              7          8          9         10
     1  Ir   0.241606   0.241606   0.241606   0.241606
     2  Ir  -0.030071  -0.030071  -0.030071  -0.030071
     3  Cl   0.021253   0.000930   0.000930   0.000064
     4  Cl   0.000930   0.021253   0.000064   0.000930
     5  Cl   0.000930   0.000064   0.021253   0.000930
     6  Cl   0.000064   0.000930   0.000930   0.021253
     7  Cl  16.752813  -0.039013  -0.039013  -0.003904
     8  Cl  -0.039013  16.752813  -0.003904  -0.039013
     9  Cl  -0.039013  -0.003904  16.752813  -0.039013
    10  Cl  -0.003904  -0.039013  -0.039013  16.752813
 Mulliken atomic charges:
              1
     1  Ir  -0.377625
     2  Ir  -0.377624
     3  Cl   0.094406
     4  Cl   0.094406
     5  Cl   0.094406
     6  Cl   0.094406
     7  Cl   0.094406
     8  Cl   0.094406
     9  Cl   0.094406
    10  Cl   0.094406
 Sum of Mulliken atomic charges =   0.00000
 Mulliken charges with hydrogens summed into heavy atoms:
              1
     1  Ir  -0.377625
     2  Ir  -0.377624
     3  Cl   0.094406
     4  Cl   0.094406
     5  Cl   0.094406
     6  Cl   0.094406
     7  Cl   0.094406
     8  Cl   0.094406
     9  Cl   0.094406
    10  Cl   0.094406
 Sum of Mulliken charges with hydrogens summed into heavy atoms =   0.00000
 Electronic spatial extent (au):  <R**2>=           4155.1140
 Charge=              0.0000 electrons
 Dipole moment (field-independent basis, Debye):
    X=              0.0000    Y=              0.0000    Z=              0.0000  Tot=              0.0000
 Quadrupole moment (field-independent basis, Debye-Ang):
   XX=           -152.4217   YY=           -152.4217   ZZ=           -145.8379
   XY=              0.0000   XZ=              0.0000   YZ=              0.0000
 Traceless Quadrupole moment (field-independent basis, Debye-Ang):
   XX=             -2.1946   YY=             -2.1946   ZZ=              4.3892
   XY=              0.0000   XZ=              0.0000   YZ=              0.0000
 Octapole moment (field-independent basis, Debye-Ang**2):
  XXX=              0.0000  YYY=              0.0000  ZZZ=              0.0001  XYY=              0.0000
  XXY=              0.0000  XXZ=              0.0000  XZZ=              0.0000  YZZ=              0.0000
  YYZ=              0.0000  XYZ=              0.0000
 Hexadecapole moment (field-independent basis, Debye-Ang**3):
 XXXX=          -1681.8906 YYYY=          -1681.8906 ZZZZ=          -1928.7290 XXXY=              0.0000
 XXXZ=              0.0000 YYYX=              0.0000 YYYZ=              0.0000 ZZZX=              0.0000
 ZZZY=              0.0000 XXYY=           -600.3200 XXZZ=           -625.4458 YYZZ=           -625.4458
 XXYZ=              0.0000 YYXZ=              0.0000 ZZXY=              0.0000
 N-N= 2.042069337448D+03 E-N=-1.325944561595D+04  KE= 3.739850230713D+03
 Symmetry A1   KE= 1.677210976707D+03
 Symmetry A2   KE= 1.925789930454D+02
 Symmetry B1   KE= 9.350301304804D+02
 Symmetry B2   KE= 9.350301304804D+02
 Orbital energies and kinetic energies (alpha):
                                 1                 2
   1         (B2)--O        -101.575907        137.057486
   2         (E)--O         -101.575906        137.057494
   3         (E)--O         -101.575906        137.057494
   4         (A1)--O        -101.575890        137.059655
   5         (E)--O         -101.575877        137.061595
   6         (E)--O         -101.575877        137.061595
   7         (A1)--O        -101.575873        137.062082
   8         (B2)--O        -101.575860        137.064080
   9         (B2)--O          -9.505688         21.699318
  10         (E)--O           -9.505683         21.699658
  11         (E)--O           -9.505683         21.699658
  12         (A1)--O          -9.505624         21.707406
  13         (E)--O           -9.505616         21.709345
  14         (E)--O           -9.505616         21.709345
  15         (A1)--O          -9.505589         21.712669
  16         (B2)--O          -9.505567         21.715736
  17         (B2)--O          -7.266265         20.525477
  18         (A1)--O          -7.266214         20.535944
  19         (E)--O           -7.266198         20.537577
  20         (E)--O           -7.266198         20.537577
  21         (A1)--O          -7.266196         20.539455
  22         (B2)--O          -7.266195         20.537573
  23         (E)--O           -7.266187         20.539287
  24         (E)--O           -7.266187         20.539287
  25         (B2)--O          -7.263149         20.543117
  26         (E)--O           -7.263146         20.541459
  27         (E)--O           -7.263146         20.541459
  28         (B2)--O          -7.263143         20.541595
  29         (A1)--O          -7.263141         20.543998
  30         (A1)--O          -7.263137         20.543126
  31         (E)--O           -7.263132         20.545533
  32         (E)--O           -7.263132         20.545533
  33         (A2)--O          -7.257676         20.546530
  34         (E)--O           -7.257672         20.548370
  35         (E)--O           -7.257672         20.548370
  36         (E)--O           -7.257655         20.551258
  37         (E)--O           -7.257655         20.551258
  38         (A2)--O          -7.257654         20.550473
  39         (B1)--O          -7.257645         20.553985
  40         (B1)--O          -7.257625         20.557055
  41         (A1)--O          -3.860834          1.549906
  42         (A1)--O          -3.858698          1.569217
  43         (A1)--O          -2.282373          2.147351
  44         (E)--O           -2.258093          2.184119
  45         (E)--O           -2.258093          2.184119
  46         (E)--O           -2.255075          2.198960
  47         (E)--O           -2.255075          2.198960
  48         (A1)--O          -2.255007          2.243829
  49         (A1)--O          -0.877794          2.834961
  50         (A1)--O          -0.861167          3.001522
  51         (B2)--O          -0.856010          3.085494
  52         (E)--O           -0.851493          3.106790
  53         (E)--O           -0.851493          3.106790
  54         (B2)--O          -0.841023          3.227579
  55         (E)--O           -0.836758          3.247573
  56         (E)--O           -0.836758          3.247573
  57         (A1)--O          -0.499039          2.167194
  58         (B2)--O          -0.495870          2.233662
  59         (A1)--O          -0.489440          1.607748
  60         (E)--O           -0.488888          1.826991
  61         (E)--O           -0.488888          1.826991
  62         (B2)--O          -0.481612          2.312722
  63         (A1)--O          -0.479626          2.162193
  64         (B1)--O          -0.477812          1.819169
  65         (B1)--O          -0.457502          1.953690
  66         (E)--O           -0.421187          2.234661
  67         (E)--O           -0.421187          2.234661
  68         (A1)--O          -0.416621          1.938295
  69         (E)--O           -0.412042          2.177869
  70         (E)--O           -0.412042          2.177869
  71         (B2)--O          -0.384827          2.259208
  72         (E)--O           -0.361894          2.413195
  73         (E)--O           -0.361894          2.413195
  74         (A1)--O          -0.359179          2.166346
  75         (E)--O           -0.357939          2.389457
  76         (E)--O           -0.357939          2.389457
  77         (E)--O           -0.344704          2.399533
  78         (E)--O           -0.344704          2.399533
  79         (E)--O           -0.342455          2.544341
  80         (E)--O           -0.342455          2.544341
  81         (A2)--O          -0.332529          2.590543
  82         (A2)--O          -0.321344          2.705448
  83         (B1)--O          -0.320898          2.452893
  84         (B2)--O          -0.315889          2.709542
  85         (B1)--O          -0.308632          2.559710
  86         (E)--V           -0.245903          2.775028
  87         (E)--V           -0.245903          2.775028
  88         (A1)--V          -0.226586          2.551949
  89         (B2)--V          -0.150891          2.931288
  90         (B2)--V          -0.140490          3.033510
  91         (A1)--V          -0.068273          1.933206
  92         (A1)--V          -0.004747          1.106181
  93         (A1)--V          -0.002556          1.231114
  94         (E)--V            0.036863          0.582336
  95         (E)--V            0.036863          0.582336
  96         (A1)--V           0.051417          1.173326
  97         (E)--V            0.053788          0.437937
  98         (E)--V            0.053788          0.437937
  99         (A1)--V           0.064572          0.465752
 100         (E)--V            0.155703          1.491033
 101         (E)--V            0.155703          1.491033
 102         (E)--V            0.246614          1.411901
 103         (E)--V            0.246614          1.411901
 104         (A1)--V           0.265021          1.652185
 105         (A1)--V           0.305302          2.459573
 106         (B2)--V           0.317601          2.316107
 107         (B1)--V           0.334678          1.686180
 108         (B2)--V           0.340798          2.080243
 109         (E)--V            0.343694          1.964329
 110         (E)--V            0.343694          1.964329
 111         (B1)--V           0.354392          2.757117
 112         (B1)--V           0.369650          1.694972
 113         (A1)--V           0.405908          1.907841
 114         (E)--V            0.410889          2.080070
 115         (E)--V            0.410889          2.080070
 116         (E)--V            0.418185          2.875994
 117         (E)--V            0.418185          2.875994
 118         (A1)--V           0.422343          2.563130
 119         (B2)--V           0.424582          2.415388
 120         (B1)--V           0.431619          2.844542
 121         (E)--V            0.448734          2.592728
 122         (E)--V            0.448734          2.592728
 123         (A1)--V           0.476456          2.825081
 124         (E)--V            0.483362          2.594378
 125         (E)--V            0.483362          2.594378
 126         (A1)--V           0.487261          2.706092
 127         (B2)--V           0.490084          2.519304
 128         (E)--V            0.500507          2.504671
 129         (E)--V            0.500507          2.504671
 130         (A2)--V           0.513048          2.651728
 131         (B2)--V           0.531630          2.848203
 132         (E)--V            0.558376          2.717307
 133         (E)--V            0.558376          2.717307
 134         (E)--V            0.566584          2.750145
 135         (E)--V            0.566584          2.750145
 136         (E)--V            0.573394          2.638253
 137         (E)--V            0.573394          2.638253
 138         (A2)--V           0.582045          2.686609
 139         (A1)--V           0.584396          2.603297
 140         (B2)--V           0.635887          2.811281
 141         (B2)--V           0.649399          2.667023
 142         (A1)--V           0.660467          2.681409
 143         (E)--V            0.752139          2.795054
 144         (E)--V            0.752139          2.795054
 145         (A1)--V           0.765601          2.687207
 146         (B2)--V           0.804627          2.653093
 147         (B2)--V           0.823461          2.666676
 148         (A2)--V           0.823691          2.627891
 149         (B1)--V           0.825644          2.624738
 150         (E)--V            0.826890          2.648439
 151         (E)--V            0.826890          2.648439
 152         (A2)--V           0.827252          2.627343
 153         (E)--V            0.832104          2.642201
 154         (E)--V            0.832104          2.642201
 155         (B1)--V           0.832126          2.635135
 156         (E)--V            0.832857          2.655733
 157         (E)--V            0.832857          2.655733
 158         (A2)--V           0.861020          2.740823
 159         (E)--V            0.865875          2.846467
 160         (E)--V            0.865875          2.846467
 161         (A1)--V           0.866974          2.705965
 162         (E)--V            0.868851          2.784716
 163         (E)--V            0.868851          2.784716
 164         (A2)--V           0.883975          2.829688
 165         (A1)--V           0.893133          2.749820
 166         (A1)--V           0.898581          2.778231
 167         (B2)--V           0.906673          2.895109
 168         (B2)--V           0.923555          3.078010
 169         (E)--V            0.937735          3.131061
 170         (E)--V            0.937735          3.131061
 171         (E)--V            0.982466          2.810471
 172         (E)--V            0.982466          2.810471
 173         (B2)--V           1.058491          3.978638
 174         (B1)--V           1.066193          2.782457
 175         (E)--V            1.073580          2.757918
 176         (E)--V            1.073580          2.757918
 177         (A1)--V           1.078344          3.066243
 178         (E)--V            1.102011          2.889174
 179         (E)--V            1.102011          2.889174
 180         (A1)--V           1.173422          2.716544
 181         (A1)--V           1.187155          3.049940
 182         (B1)--V           1.194423          2.919558
 183         (B2)--V           1.231564          2.881436
 184         (E)--V            1.281350          3.131556
 185         (E)--V            1.281350          3.131556
 186         (B2)--V           1.544622          3.689895
 187         (A1)--V           5.492789          2.322182
 188         (A1)--V          11.228517          3.707554
 Total kinetic energy from orbitals= 3.739850230713D+03
 1\1\GINC-LSQC07\FOpt\RB3LYP\GenECP\Cl8Ir2\LITAO\05-May-2015\0\\#opt b3
 lyp/genecp pop=full\\Title Card Required\\0,1\Ir,0.,0.,-0.0820764452\I
 r,0.,0.,2.3237045603\Cl,1.6166142329,1.6166142329,2.6297801235\Cl,1.61
 66142329,-1.6166142329,2.6297801235\Cl,-1.6166142329,1.6166142329,2.62
 97801235\Cl,-1.6166142329,-1.6166142329,2.6297801235\Cl,1.6166157129,1
 .6166157129,-0.3881476618\Cl,1.6166157129,-1.6166157129,-0.3881476618\
 Cl,-1.6166157129,1.6166157129,-0.3881476618\Cl,-1.6166157129,-1.616615
 7129,-0.3881476618\\Version=EM64L-G09RevA.01\State=1-A1\HF=-3891.03151
 44\RMSD=4.906e-09\RMSF=7.893e-07\Dipole=0.,0.,0.000006\Quadrupole=-1.6
 316321,-1.6316321,3.2632643,0.,0.,0.\PG=C04V [C4(Ir1Ir1),2SGV(Cl4)]\\@


 WE HAVE LEFT UNDONE THOSE THINGS WHICH WE OUGHT TO HAVE DONE,
 AND WE HAVE DONE THOSE THINGS WHICH WE OUGHT NOT TO HAVE DONE.
                   BOOK OF COMMON PRAYER                      
 Job cpu time:  0 days  0 hours 13 minutes 42.0 seconds.
 File lengths (MBytes):  RWF=     20 Int=      0 D2E=      0 Chk=      3 Scr=      1
 Normal termination of Gaussian 09 at Tue May  5 13:05:48 2015.
