 Entering Gaussian System, Link 0=g09
 Input=ir2cl8-stable.gjf
 Output=ir2cl8-stable.log
 Initial command:
 /usr/g09/l1.exe /scratch/litao/gaussian/Gau-4134.inp -scrdir=/scratch/litao/gaussian/
 Entering Link 1 = /usr/g09/l1.exe PID=      4135.
  
 Copyright (c) 1988,1990,1992,1993,1995,1998,2003,2009, Gaussian, Inc.
                  All Rights Reserved.
  
 This is part of the Gaussian(R) 09 program.  It is based on
 the Gaussian(R) 03 system (copyright 2003, Gaussian, Inc.),
 the Gaussian(R) 98 system (copyright 1998, Gaussian, Inc.),
 the Gaussian(R) 94 system (copyright 1995, Gaussian, Inc.),
 the Gaussian 92(TM) system (copyright 1992, Gaussian, Inc.),
 the Gaussian 90(TM) system (copyright 1990, Gaussian, Inc.),
 the Gaussian 88(TM) system (copyright 1988, Gaussian, Inc.),
 the Gaussian 86(TM) system (copyright 1986, Carnegie Mellon
 University), and the Gaussian 82(TM) system (copyright 1983,
 Carnegie Mellon University). Gaussian is a federally registered
 trademark of Gaussian, Inc.
  
 This software contains proprietary and confidential information,
 including trade secrets, belonging to Gaussian, Inc.
  
 This software is provided under written license and may be
 used, copied, transmitted, or stored only in accord with that
 written license.
  
 The following legend is applicable only to US Government
 contracts under FAR:
  
                    RESTRICTED RIGHTS LEGEND
  
 Use, reproduction and disclosure by the US Government is
 subject to restrictions as set forth in subparagraphs (a)
 and (c) of the Commercial Computer Software - Restricted
 Rights clause in FAR 52.227-19.
  
 Gaussian, Inc.
 340 Quinnipiac St., Bldg. 40, Wallingford CT 06492
  
  
 ---------------------------------------------------------------
 Warning -- This program may not be used in any manner that
 competes with the business of Gaussian, Inc. or will provide
 assistance to any competitor of Gaussian, Inc.  The licensee
 of this program is prohibited from giving any competitor of
 Gaussian, Inc. access to this program.  By using this program,
 the user acknowledges that Gaussian, Inc. is engaged in the
 business of creating and licensing software in the field of
 computational chemistry and represents and warrants to the
 licensee that it is not a competitor of Gaussian, Inc. and that
 it will not use this program in any manner prohibited above.
 ---------------------------------------------------------------
  

 Cite this work as:
 Gaussian 09, Revision A.01,
 M. J. Frisch, G. W. Trucks, H. B. Schlegel, G. E. Scuseria, 
 M. A. Robb, J. R. Cheeseman, G. Scalmani, V. Barone, B. Mennucci, 
 G. A. Petersson, H. Nakatsuji, M. Caricato, X. Li, H. P. Hratchian, 
 A. F. Izmaylov, J. Bloino, G. Zheng, J. L. Sonnenberg, M. Hada, 
 M. Ehara, K. Toyota, R. Fukuda, J. Hasegawa, M. Ishida, T. Nakajima, 
 Y. Honda, O. Kitao, H. Nakai, T. Vreven, J. A. Montgomery, Jr., 
 J. E. Peralta, F. Ogliaro, M. Bearpark, J. J. Heyd, E. Brothers, 
 K. N. Kudin, V. N. Staroverov, R. Kobayashi, J. Normand, 
 K. Raghavachari, A. Rendell, J. C. Burant, S. S. Iyengar, J. Tomasi, 
 M. Cossi, N. Rega, J. M. Millam, M. Klene, J. E. Knox, J. B. Cross, 
 V. Bakken, C. Adamo, J. Jaramillo, R. Gomperts, R. E. Stratmann, 
 O. Yazyev, A. J. Austin, R. Cammi, C. Pomelli, J. W. Ochterski, 
 R. L. Martin, K. Morokuma, V. G. Zakrzewski, G. A. Voth, 
 P. Salvador, J. J. Dannenberg, S. Dapprich, A. D. Daniels, 
 O. Farkas, J. B. Foresman, J. V. Ortiz, J. Cioslowski, 
 and D. J. Fox, Gaussian, Inc., Wallingford CT, 2009.
 
 ******************************************
 Gaussian 09:  EM64L-G09RevA.01  8-May-2009
                 5-May-2015 
 ******************************************
 %nprocshared=8
 Will use up to    8 processors via shared memory.
 %mem=8GB
 %chk=ir2cl8-stable.chk
 ------------------------
 #p b3lyp/genecp pop=full
 ------------------------
 1/38=1/1;
 2/12=2,17=6,18=5,40=1/2;
 3/5=7,11=2,16=1,17=8,25=1,30=1,74=-5/1,2,3;
 4//1;
 5/5=2,38=5/2;
 6/7=3,28=1/1;
 99/5=1,9=1/99;
 Leave Link    1 at Tue May  5 13:03:36 2015, MaxMem= 1073741824 cpu:       0.1
 (Enter /usr/g09/l101.exe)
 -------------------
 Title Card Required
 -------------------
 Symbolic Z-matrix:
 Charge =  0 Multiplicity = 1
 Ir                    0.        0.        0. 
 Ir                    0.        0.        2.24016 
 Cl                    1.57      1.57      2.782 
 Cl                    1.57     -1.57      2.782 
 Cl                   -1.57      1.57      2.782 
 Cl                   -1.57     -1.57      2.782 
 Cl                    1.57      1.57     -0.54 
 Cl                    1.57     -1.57     -0.54 
 Cl                   -1.57      1.57     -0.54 
 Cl                   -1.57     -1.57     -0.54 
 
 NAtoms=     10 NQM=     10 NQMF=      0 NMic=      0 NMicF=      0 NTot=     10.
                    Isotopes and Nuclear Properties:
 (Nuclear quadrupole moments (NQMom) in fm**2, nuclear magnetic moments (NMagM)
  in nuclear magnetons)

  Atom         1           2           3           4           5           6           7           8           9          10
 IAtWgt=         193         193          35          35          35          35          35          35          35          35
 AtmWgt= 192.9633000 192.9633000  34.9688527  34.9688527  34.9688527  34.9688527  34.9688527  34.9688527  34.9688527  34.9688527
 NucSpn=           3           3           3           3           3           3           3           3           3           3
 AtZEff=   0.0000000   0.0000000   0.0000000   0.0000000   0.0000000   0.0000000   0.0000000   0.0000000   0.0000000   0.0000000
 NQMom=   75.1000000  75.1000000  -8.1650000  -8.1650000  -8.1650000  -8.1650000  -8.1650000  -8.1650000  -8.1650000  -8.1650000
 NMagM=    0.1592000   0.1592000   0.8218740   0.8218740   0.8218740   0.8218740   0.8218740   0.8218740   0.8218740   0.8218740
 Leave Link  101 at Tue May  5 13:03:36 2015, MaxMem= 1073741824 cpu:       0.1
 (Enter /usr/g09/l202.exe)
                          Input orientation:                          
 ---------------------------------------------------------------------
 Center     Atomic      Atomic             Coordinates (Angstroms)
 Number     Number       Type             X           Y           Z
 ---------------------------------------------------------------------
      1         77           0        0.000000    0.000000    0.000000
      2         77           0        0.000000    0.000000    2.240158
      3         17           0        1.570000    1.570000    2.782000
      4         17           0        1.570000   -1.570000    2.782000
      5         17           0       -1.570000    1.570000    2.782000
      6         17           0       -1.570000   -1.570000    2.782000
      7         17           0        1.570000    1.570000   -0.540000
      8         17           0        1.570000   -1.570000   -0.540000
      9         17           0       -1.570000    1.570000   -0.540000
     10         17           0       -1.570000   -1.570000   -0.540000
 ---------------------------------------------------------------------
                    Distance matrix (angstroms):
                    1          2          3          4          5
     1  Ir   0.000000
     2  Ir   2.240158   0.000000
     3  Cl   3.559399   2.285474   0.000000
     4  Cl   3.559399   2.285474   3.140000   0.000000
     5  Cl   3.559399   2.285474   3.140000   4.440631   0.000000
     6  Cl   3.559399   2.285474   4.440631   3.140000   3.140000
     7  Cl   2.285038   3.557960   3.322000   4.571136   4.571136
     8  Cl   2.285038   3.557960   4.571136   3.322000   5.545709
     9  Cl   2.285038   3.557960   4.571136   5.545709   3.322000
    10  Cl   2.285038   3.557960   5.545709   4.571136   4.571136
                    6          7          8          9         10
     6  Cl   0.000000
     7  Cl   5.545709   0.000000
     8  Cl   4.571136   3.140000   0.000000
     9  Cl   4.571136   3.140000   4.440631   0.000000
    10  Cl   3.322000   4.440631   3.140000   3.140000   0.000000
 Stoichiometry    Cl8Ir2
 Framework group  C4V[C4(IrIr),2SGV(Cl4)]
 Deg. of freedom     5
 Full point group                 C4V     NOp   8
 Largest Abelian subgroup         C2V     NOp   4
 Largest concise Abelian subgroup C2V     NOp   4
                         Standard orientation:                         
 ---------------------------------------------------------------------
 Center     Atomic      Atomic             Coordinates (Angstroms)
 Number     Number       Type             X           Y           Z
 ---------------------------------------------------------------------
      1         77           0        0.000000    0.000000    1.120511
      2         77           0        0.000000    0.000000   -1.119647
      3         17           0        0.000000    2.220315   -1.661489
      4         17           0       -2.220315    0.000000   -1.661489
      5         17           0        2.220315    0.000000   -1.661489
      6         17           0        0.000000   -2.220315   -1.661489
      7         17           0        0.000000    2.220315    1.660511
      8         17           0       -2.220315    0.000000    1.660511
      9         17           0        2.220315    0.000000    1.660511
     10         17           0        0.000000   -2.220315    1.660511
 ---------------------------------------------------------------------
 Rotational constants (GHZ):      0.3664515      0.2597624      0.2597624
 Leave Link  202 at Tue May  5 13:03:36 2015, MaxMem= 1073741824 cpu:       0.0
 (Enter /usr/g09/l301.exe)
 General basis read from cards:  (5D, 7F)
 Centers:   3  4  5  6  7  8  9 10
 6-31g**
 ****
 Centers:   1  2
 LanL2DZ
 ****
 Ernie: Thresh=  0.10000D-02 Tol=  0.10000D-05 Strict=F.
 Ernie:  2 primitive shells out of 170 were deleted.
 ======================================================================================================
                                       Pseudopotential Parameters
 ======================================================================================================
  Center     Atomic      Valence      Angular      Power
  Number     Number     Electrons     Momentum     of R      Exponent        Coefficient   SO-Coeffient
 ======================================================================================================
    1         77           17
                                      G and up 
                                                     1      823.5880147       -0.15780140    0.00000000
                                                     2      364.6613336    -1517.52704460    0.00000000
                                                     2       55.7082801     -316.53065290    0.00000000
                                                     2       12.0464544      -91.88809410    0.00000000
                                                     2        3.5120610       -9.22417730    0.00000000
                                      S - G
                                                     0      188.0490770        3.15780140    0.00000000
                                                     1      340.4194712       26.83225770    0.00000000
                                                     2      128.2373673      800.42500070    0.00000000
                                                     2       33.8644961      369.40506830    0.00000000
                                                     2        4.7560005      242.41718990    0.00000000
                                                     2        3.9649974     -118.21732820    0.00000000
                                      P - G
                                                     0      289.7291139        2.15780140    0.00000000
                                                     1       87.4633789       61.96786100    0.00000000
                                                     2       30.4363766      269.05819860    0.00000000
                                                     2        4.0553412      231.16547930    0.00000000
                                                     2        3.5525341     -133.69526670    0.00000000
                                      D - G
                                                     0      136.4017106        3.15780140    0.00000000
                                                     1       95.0776925       45.93498030    0.00000000
                                                     2       49.2258410      359.03446680    0.00000000
                                                     2       15.0874145      176.47401190    0.00000000
                                                     2        4.0405764       54.51552860    0.00000000
                                      F - G
                                                     0      127.3507908        3.95461970    0.00000000
                                                     1       66.2364374       52.97736550    0.00000000
                                                     2       34.4299229      274.86433830    0.00000000
                                                     2       10.1995721      137.20473380    0.00000000
                                                     2        2.5409702       14.86333050    0.00000000
    2         77           17
                                      G and up 
                                                     1      823.5880147       -0.15780140    0.00000000
                                                     2      364.6613336    -1517.52704460    0.00000000
                                                     2       55.7082801     -316.53065290    0.00000000
                                                     2       12.0464544      -91.88809410    0.00000000
                                                     2        3.5120610       -9.22417730    0.00000000
                                      S - G
                                                     0      188.0490770        3.15780140    0.00000000
                                                     1      340.4194712       26.83225770    0.00000000
                                                     2      128.2373673      800.42500070    0.00000000
                                                     2       33.8644961      369.40506830    0.00000000
                                                     2        4.7560005      242.41718990    0.00000000
                                                     2        3.9649974     -118.21732820    0.00000000
                                      P - G
                                                     0      289.7291139        2.15780140    0.00000000
                                                     1       87.4633789       61.96786100    0.00000000
                                                     2       30.4363766      269.05819860    0.00000000
                                                     2        4.0553412      231.16547930    0.00000000
                                                     2        3.5525341     -133.69526670    0.00000000
                                      D - G
                                                     0      136.4017106        3.15780140    0.00000000
                                                     1       95.0776925       45.93498030    0.00000000
                                                     2       49.2258410      359.03446680    0.00000000
                                                     2       15.0874145      176.47401190    0.00000000
                                                     2        4.0405764       54.51552860    0.00000000
                                      F - G
                                                     0      127.3507908        3.95461970    0.00000000
                                                     1       66.2364374       52.97736550    0.00000000
                                                     2       34.4299229      274.86433830    0.00000000
                                                     2       10.1995721      137.20473380    0.00000000
                                                     2        2.5409702       14.86333050    0.00000000
    3         17
                                   No pseudopotential on this center.
    4         17
                                   No pseudopotential on this center.
    5         17
                                   No pseudopotential on this center.
    6         17
                                   No pseudopotential on this center.
    7         17
                                   No pseudopotential on this center.
    8         17
                                   No pseudopotential on this center.
    9         17
                                   No pseudopotential on this center.
   10         17
                                   No pseudopotential on this center.
 ======================================================================================================
 There are    72 symmetry adapted basis functions of A1  symmetry.
 There are    24 symmetry adapted basis functions of A2  symmetry.
 There are    46 symmetry adapted basis functions of B1  symmetry.
 There are    46 symmetry adapted basis functions of B2  symmetry.
 Integral buffers will be    131072 words long.
 Raffenetti 2 integral format.
 Two-electron integral symmetry is turned on.
   188 basis functions,   502 primitive gaussians,   200 cartesian basis functions
    85 alpha electrons       85 beta electrons
       nuclear repulsion energy      2036.9273144516 Hartrees.
 IExCor=  402 DFT=T Ex+Corr=B3LYP ExCW=0 ScaHFX=  0.200000
 ScaDFX=  0.800000  0.720000  1.000000  0.810000 ScalE2=  1.000000  1.000000
 IRadAn=      0 IRanWt=     -1 IRanGd=            0 ICorTp=0
 NAtoms=   10 NActive=   10 NUniq=    4 SFac= 3.00D+00 NAtFMM=   80 NAOKFM=F Big=F
 Leave Link  301 at Tue May  5 13:03:36 2015, MaxMem= 1073741824 cpu:       0.2
 (Enter /usr/g09/l302.exe)
 NPDir=0 NMtPBC=     1 NCelOv=     1 NCel=       1 NClECP=     1 NCelD=      1
         NCelK=      1 NCelE2=     1 NClLst=     1 CellRange=     0.0.
 One-electron integrals computed using PRISM.
 One-electron integral symmetry used in STVInt
   8 Symmetry operations used in ECPInt.
 ECPInt:  NShTT=    1596 NPrTT=   14482 LenC2=    1481 LenP2D=    8758.
 LDataN:  DoStor=T MaxTD1= 6 Len=  172
 NBasis=   188 RedAO= T  NBF=    72    24    46    46
 NBsUse=   188 1.00D-06 NBFU=    72    24    46    46
 Precomputing XC quadrature grid using
 IXCGrd= 2 IRadAn=           0 IRanWt=          -1 IRanGd=           0 AccXCQ= 1.00D-10.
 Defaulting to unpruned grid for atomic number  77.
 NRdTot=     620 NPtTot=       99784 NUsed=      104267 NTot=      104299
 NSgBfM=   196   196   196   196   196 NAtAll=    10    10.
 Leave Link  302 at Tue May  5 13:03:36 2015, MaxMem= 1073741824 cpu:       2.5
 (Enter /usr/g09/l303.exe)
 DipDrv:  MaxL=1.
 Leave Link  303 at Tue May  5 13:03:36 2015, MaxMem= 1073741824 cpu:       0.2
 (Enter /usr/g09/l401.exe)
 Harris functional with IExCor=  402 diagonalized for initial guess.
 ExpMin= 2.90D-02 ExpMax= 2.52D+04 ExpMxC= 3.78D+03 IAcc=3 IRadAn=         0 AccDes= 0.00D+00
 HarFok:  IExCor=  402 AccDes= 0.00D+00 IRadAn=         0 IDoV= 1
 ScaDFX=  1.000000  1.000000  1.000000  1.000000
 Defaulting to unpruned grid for atomic number  77.
 Defaulting to unpruned grid for atomic number  77.
 Defaulting to unpruned grid for atomic number  77.
 Defaulting to unpruned grid for atomic number  77.
 Defaulting to unpruned grid for atomic number  77.
 Defaulting to unpruned grid for atomic number  77.
 Defaulting to unpruned grid for atomic number  77.
 Defaulting to unpruned grid for atomic number  77.
 FoFCou: FMM=F IPFlag=           0 FMFlag=      100000 FMFlg1=           0
         NFxFlg=           0 DoJE=T BraDBF=F KetDBF=T FulRan=T
         Omega=  0.000000  0.000000  1.000000  0.000000  0.000000 ICntrl=     500 IOpCl=  0
         NMat0=    1 NMatS0=    1 NMatT0=    0 NMatD0=    1 NMtDS0=    0 NMtDT0=    0
         I1Cent=           4 NGrid=           0.
 Petite list used in FoFCou.
 Harris En= -3934.44758407338    
 Initial guess orbital symmetries:
       Occupied  (B2) (E) (E) (A1) (E) (E) (A1) (B2) (B2) (E) (E)
                 (A1) (E) (E) (A1) (B2) (B2) (A1) (E) (E) (A1)
                 (E) (E) (B2) (E) (E) (A2) (B2) (A1) (E) (E) (A2)
                 (E) (E) (B1) (A1) (B2) (B1) (E) (E) (A1) (A1)
                 (A1) (E) (E) (E) (E) (A1) (A1) (B2) (A1) (B2)
                 (E) (E) (E) (E) (B1) (A1) (B1) (A1) (B2) (E) (E)
                 (A1) (B2) (E) (E) (E) (E) (B2) (A1) (E) (E) (E)
                 (E) (B2) (A2) (E) (E) (A2) (E) (E) (A1) (B1) (A1)
       Virtual   (E) (E) (B1) (E) (E) (A1) (A1) (B2) (A1) (B2)
                 (E) (E) (A1) (E) (E) (A1) (E) (E) (B2) (B1) (B1)
                 (E) (E) (A1) (B2) (E) (E) (B2) (A1) (A1) (E) (E)
                 (E) (E) (A1) (A2) (A1) (A2) (E) (E) (E) (E) (B2)
                 (A1) (E) (E) (B2) (B2) (E) (E) (E) (E) (B1) (B2)
                 (B1) (A1) (E) (E) (B2) (A2) (A2) (B1) (A1) (B1)
                 (E) (E) (E) (E) (E) (E) (B2) (A1) (A2) (B2) (E)
                 (E) (A2) (E) (E) (A1) (E) (E) (A1) (A1) (E) (E)
                 (B2) (B1) (B2) (E) (E) (B2) (E) (E) (A1) (E) (E)
                 (A1) (A1) (B1) (B2) (A1) (A1)
 The electronic state of the initial guess is 1-A1.
 Leave Link  401 at Tue May  5 13:03:36 2015, MaxMem= 1073741824 cpu:       1.7
 (Enter /usr/g09/l502.exe)
 Closed shell SCF:
 Requested convergence on RMS density matrix=1.00D-08 within 128 cycles.
 Requested convergence on MAX density matrix=1.00D-06.
 Requested convergence on             energy=1.00D-06.
 No special actions if energy rises.
 Using DIIS extrapolation, IDIIS=  1040.
 Integral symmetry usage will be decided dynamically.
       104164 words used for storage of precomputed grid.
 Keep R1 ints in memory in canonical form, NReq=206321594.
 IEnd=      246330 IEndB=      246330 NGot=  1073741824 MDV=   871537257
 LenX=   871537257 LenY=   871496816
 Symmetry not used in FoFDir.
 MinBra= 0 MaxBra= 2 Meth= 1.
 IRaf=       0 NMat=   1 IRICut=       1 DoRegI=T DoRafI=F ISym2E= 0 JSym2E=0.

 Cycle   1  Pass 1  IDiag  1:
 Defaulting to unpruned grid for atomic number  77.
 Defaulting to unpruned grid for atomic number  77.
 Defaulting to unpruned grid for atomic number  77.
 Defaulting to unpruned grid for atomic number  77.
 Defaulting to unpruned grid for atomic number  77.
 Defaulting to unpruned grid for atomic number  77.
 Defaulting to unpruned grid for atomic number  77.
 Defaulting to unpruned grid for atomic number  77.
 E= -3872.23816907071    
 DIIS: error= 4.22D-01 at cycle   1 NSaved=   1.
 NSaved= 1 IEnMin= 1 EnMin= -3872.23816907071     IErMin= 1 ErrMin= 4.22D-01
 ErrMax= 4.22D-01 EMaxC= 1.00D-01 BMatC= 2.49D+01 BMatP= 2.49D+01
 IDIUse=3 WtCom= 0.00D+00 WtEn= 1.00D+00
 Coeff-Com:  0.100D+01
 Coeff-En:   0.100D+01
 Coeff:      0.100D+01
 Gap=     1.113 Goal=   None    Shift=    0.000
 GapD=    1.113 DampG=2.000 DampE=0.125 DampFc=0.2500 IDamp=-1.
 Damping current iteration by 2.50D-01
 RMSDP=1.73D-01 MaxDP=7.07D+00              OVMax= 5.73D-01

 Cycle   2  Pass 1  IDiag  1:
 Density matrix breaks symmetry, PCut= 1.00D-04
 Density has only Abelian symmetry.
 E= -3881.11563491973     Delta-E=       -8.877465849014 Rises=F Damp=T
 DIIS: error= 2.19D-01 at cycle   2 NSaved=   2.
 NSaved= 2 IEnMin= 2 EnMin= -3881.11563491973     IErMin= 2 ErrMin= 2.19D-01
 ErrMax= 2.19D-01 EMaxC= 1.00D-01 BMatC= 6.38D+00 BMatP= 2.49D+01
 IDIUse=3 WtCom= 0.00D+00 WtEn= 1.00D+00
 Coeff-Com: -0.776D+00 0.178D+01
 Coeff-En:   0.000D+00 0.100D+01
 Coeff:      0.000D+00 0.100D+01
 Gap=    -0.087 Goal=   None    Shift=    0.000
 RMSDP=1.28D-01 MaxDP=8.41D+00 DE=-8.88D+00 OVMax= 8.21D-01

 Cycle   3  Pass 1  IDiag  1:
 Density matrix breaks symmetry, PCut= 1.00D-04
 Density has only Abelian symmetry.
 E= -3879.61842071993     Delta-E=        1.497214199798 Rises=F Damp=F
 DIIS: error= 2.08D-01 at cycle   3 NSaved=   3.
 NSaved= 3 IEnMin= 2 EnMin= -3881.11563491973     IErMin= 3 ErrMin= 2.08D-01
 ErrMax= 2.08D-01 EMaxC= 1.00D-01 BMatC= 6.09D+00 BMatP= 6.38D+00
 IDIUse=3 WtCom= 0.00D+00 WtEn= 1.00D+00
 EnCoef did   100 forward-backward iterations
 Coeff-Com: -0.414D+00 0.114D+01 0.276D+00
 Coeff-En:   0.403D+00 0.157D-01 0.581D+00
 Coeff:      0.403D+00 0.157D-01 0.581D+00
 Gap=    -0.059 Goal=   None    Shift=    0.000
 RMSDP=4.64D-02 MaxDP=2.99D+00 DE= 1.50D+00 OVMax= 9.57D-01

 Cycle   4  Pass 1  IDiag  1:
 Density matrix breaks symmetry, PCut= 1.00D-04
 Density has only Abelian symmetry.
 E= -3889.06164533693     Delta-E=       -9.443224616998 Rises=F Damp=F
 DIIS: error= 1.08D-01 at cycle   4 NSaved=   4.
 NSaved= 4 IEnMin= 4 EnMin= -3889.06164533693     IErMin= 4 ErrMin= 1.08D-01
 ErrMax= 1.08D-01 EMaxC= 1.00D-01 BMatC= 1.51D+00 BMatP= 6.09D+00
 IDIUse=3 WtCom= 0.00D+00 WtEn= 1.00D+00
 Coeff-Com: -0.382D+00 0.650D+00 0.848D-01 0.648D+00
 Coeff-En:   0.000D+00 0.000D+00 0.232D+00 0.768D+00
 Coeff:      0.000D+00 0.000D+00 0.232D+00 0.768D+00
 Gap=    -0.018 Goal=   None    Shift=    0.000
 RMSDP=1.80D-02 MaxDP=7.08D-01 DE=-9.44D+00 OVMax= 7.81D-01

 Cycle   5  Pass 1  IDiag  1:
 Density matrix breaks symmetry, PCut= 1.00D-04
 Density has only Abelian symmetry.
 E= -3887.93003094512     Delta-E=        1.131614391808 Rises=F Damp=F
 DIIS: error= 1.48D-01 at cycle   5 NSaved=   5.
 NSaved= 5 IEnMin= 4 EnMin= -3889.06164533693     IErMin= 4 ErrMin= 1.08D-01
 ErrMax= 1.48D-01 EMaxC= 1.00D-01 BMatC= 2.34D+00 BMatP= 1.51D+00
 IDIUse=2 WtCom= 0.00D+00 WtEn= 1.00D+00
 Coeff-En:   0.000D+00 0.000D+00 0.000D+00 0.572D+00 0.428D+00
 Coeff:      0.000D+00 0.000D+00 0.000D+00 0.572D+00 0.428D+00
 Gap=    -0.152 Goal=   None    Shift=    0.000
 RMSDP=1.54D-02 MaxDP=4.08D-01 DE= 1.13D+00 OVMax= 9.38D-01

 Cycle   6  Pass 1  IDiag  1:
 Density matrix breaks symmetry, PCut= 1.00D-04
 Density has only Abelian symmetry.
 E= -3885.89086512912     Delta-E=        2.039165816001 Rises=F Damp=F
 DIIS: error= 8.43D-02 at cycle   6 NSaved=   6.
 NSaved= 6 IEnMin= 4 EnMin= -3889.06164533693     IErMin= 6 ErrMin= 8.43D-02
 ErrMax= 8.43D-02 EMaxC= 1.00D-01 BMatC= 2.50D+00 BMatP= 1.51D+00
 IDIUse=2 WtCom= 0.00D+00 WtEn= 1.00D+00
 EnCoef did     2 forward-backward iterations
 Coeff-En:   0.000D+00 0.000D+00 0.000D+00 0.538D+00 0.375D+00 0.869D-01
 Coeff:      0.000D+00 0.000D+00 0.000D+00 0.538D+00 0.375D+00 0.869D-01
 Gap=     0.000 Goal=   None    Shift=    0.000
 RMSDP=1.33D-02 MaxDP=5.53D-01 DE= 2.04D+00 OVMax= 3.33D-01

 Cycle   7  Pass 1  IDiag  1:
 Density matrix breaks symmetry, PCut= 1.00D-04
 Density has only Abelian symmetry.
 E= -3890.93587305586     Delta-E=       -5.045007926739 Rises=F Damp=F
 DIIS: error= 1.32D-02 at cycle   7 NSaved=   7.
 NSaved= 7 IEnMin= 7 EnMin= -3890.93587305586     IErMin= 7 ErrMin= 1.32D-02
 ErrMax= 1.32D-02 EMaxC= 1.00D-01 BMatC= 5.30D-02 BMatP= 1.51D+00
 IDIUse=3 WtCom= 8.68D-01 WtEn= 1.32D-01
 Coeff-Com: -0.358D-01 0.512D-01-0.315D-02 0.174D+00 0.723D-01-0.495D-01
 Coeff-Com:  0.791D+00
 Coeff-En:   0.000D+00 0.000D+00 0.000D+00 0.000D+00 0.000D+00 0.000D+00
 Coeff-En:   0.100D+01
 Coeff:     -0.311D-01 0.445D-01-0.273D-02 0.151D+00 0.628D-01-0.430D-01
 Coeff:      0.819D+00
 Gap=     0.094 Goal=   None    Shift=    0.000
 RMSDP=3.40D-03 MaxDP=7.92D-02 DE=-5.05D+00 OVMax= 2.16D-01

 Cycle   8  Pass 1  IDiag  1:
 Density matrix breaks symmetry, PCut= 1.00D-04
 Density has only Abelian symmetry.
 E= -3890.97068480889     Delta-E=       -0.034811753032 Rises=F Damp=F
 DIIS: error= 1.23D-02 at cycle   8 NSaved=   8.
 NSaved= 8 IEnMin= 8 EnMin= -3890.97068480889     IErMin= 8 ErrMin= 1.23D-02
 ErrMax= 1.23D-02 EMaxC= 1.00D-01 BMatC= 3.47D-02 BMatP= 5.30D-02
 IDIUse=3 WtCom= 8.77D-01 WtEn= 1.23D-01
 Coeff-Com: -0.898D-02 0.133D-01 0.451D-02 0.486D-01 0.678D-03-0.341D-01
 Coeff-Com:  0.539D+00 0.437D+00
 Coeff-En:   0.000D+00 0.000D+00 0.000D+00 0.000D+00 0.000D+00 0.000D+00
 Coeff-En:   0.380D+00 0.620D+00
 Coeff:     -0.787D-02 0.117D-01 0.395D-02 0.426D-01 0.594D-03-0.299D-01
 Coeff:      0.519D+00 0.460D+00
 Gap=     0.077 Goal=   None    Shift=    0.000
 RMSDP=1.66D-03 MaxDP=5.18D-02 DE=-3.48D-02 OVMax= 7.54D-02

 Cycle   9  Pass 1  IDiag  1:
 Density matrix breaks symmetry, PCut= 1.00D-04
 Density has only Abelian symmetry.
 E= -3890.99458624773     Delta-E=       -0.023901438840 Rises=F Damp=F
 DIIS: error= 1.33D-02 at cycle   9 NSaved=   9.
 NSaved= 9 IEnMin= 9 EnMin= -3890.99458624773     IErMin= 8 ErrMin= 1.23D-02
 ErrMax= 1.33D-02 EMaxC= 1.00D-01 BMatC= 2.18D-02 BMatP= 3.47D-02
 IDIUse=3 WtCom= 8.77D-01 WtEn= 1.23D-01
 EnCoef did     4 forward-backward iterations
 Coeff-Com: -0.612D-02 0.101D-01 0.691D-03 0.216D-01-0.825D-02-0.282D-02
 Coeff-Com:  0.295D+00 0.366D+00 0.323D+00
 Coeff-En:   0.000D+00 0.000D+00 0.000D+00 0.000D+00 0.000D+00 0.000D+00
 Coeff-En:   0.167D+00 0.295D+00 0.538D+00
 Coeff:     -0.537D-02 0.890D-02 0.606D-03 0.189D-01-0.723D-02-0.247D-02
 Coeff:      0.279D+00 0.358D+00 0.350D+00
 Gap=     0.078 Goal=   None    Shift=    0.000
 RMSDP=8.73D-04 MaxDP=3.90D-02 DE=-2.39D-02 OVMax= 4.86D-02

 Cycle  10  Pass 1  IDiag  1:
 Density matrix breaks symmetry, PCut= 1.00D-04
 Density has only Abelian symmetry.
 E= -3891.01369464109     Delta-E=       -0.019108393356 Rises=F Damp=F
 DIIS: error= 3.55D-03 at cycle  10 NSaved=  10.
 NSaved=10 IEnMin=10 EnMin= -3891.01369464109     IErMin=10 ErrMin= 3.55D-03
 ErrMax= 3.55D-03 EMaxC= 1.00D-01 BMatC= 1.66D-03 BMatP= 2.18D-02
 IDIUse=3 WtCom= 9.65D-01 WtEn= 3.55D-02
 Coeff-Com: -0.100D-02 0.194D-02-0.116D-03 0.610D-03-0.182D-02-0.360D-03
 Coeff-Com:  0.753D-01 0.109D+00 0.239D+00 0.577D+00
 Coeff-En:   0.000D+00 0.000D+00 0.000D+00 0.000D+00 0.000D+00 0.000D+00
 Coeff-En:   0.000D+00 0.000D+00 0.156D+00 0.844D+00
 Coeff:     -0.968D-03 0.187D-02-0.112D-03 0.589D-03-0.176D-02-0.347D-03
 Coeff:      0.726D-01 0.105D+00 0.236D+00 0.586D+00
 Gap=     0.077 Goal=   None    Shift=    0.000
 RMSDP=2.73D-04 MaxDP=1.26D-02 DE=-1.91D-02 OVMax= 2.23D-02

 Cycle  11  Pass 1  IDiag  1:
 Density matrix breaks symmetry, PCut= 1.00D-04
 Density has only Abelian symmetry.
 E= -3891.01515180445     Delta-E=       -0.001457163360 Rises=F Damp=F
 DIIS: error= 6.40D-04 at cycle  11 NSaved=  11.
 NSaved=11 IEnMin=11 EnMin= -3891.01515180445     IErMin=11 ErrMin= 6.40D-04
 ErrMax= 6.40D-04 EMaxC= 1.00D-01 BMatC= 1.23D-04 BMatP= 1.66D-03
 IDIUse=3 WtCom= 9.94D-01 WtEn= 6.40D-03
 Coeff-Com:  0.201D-03-0.263D-03-0.102D-03-0.212D-02 0.857D-04-0.296D-03
 Coeff-Com:  0.112D-01 0.169D-01 0.104D+00 0.406D+00 0.465D+00
 Coeff-En:   0.000D+00 0.000D+00 0.000D+00 0.000D+00 0.000D+00 0.000D+00
 Coeff-En:   0.000D+00 0.000D+00 0.000D+00 0.126D+00 0.874D+00
 Coeff:      0.199D-03-0.261D-03-0.101D-03-0.211D-02 0.851D-04-0.295D-03
 Coeff:      0.111D-01 0.168D-01 0.103D+00 0.404D+00 0.467D+00
 Gap=     0.077 Goal=   None    Shift=    0.000
 RMSDP=1.01D-04 MaxDP=3.20D-03 DE=-1.46D-03 OVMax= 6.99D-03

 Cycle  12  Pass 1  IDiag  1:
 Density matrix breaks symmetry, PCut= 1.00D-04
 Density has only Abelian symmetry.
 E= -3891.01532187998     Delta-E=       -0.000170075529 Rises=F Damp=F
 DIIS: error= 1.13D-04 at cycle  12 NSaved=  12.
 NSaved=12 IEnMin=12 EnMin= -3891.01532187998     IErMin=12 ErrMin= 1.13D-04
 ErrMax= 1.13D-04 EMaxC= 1.00D-01 BMatC= 2.21D-06 BMatP= 1.23D-04
 IDIUse=3 WtCom= 9.99D-01 WtEn= 1.13D-03
 Coeff-Com:  0.107D-03-0.212D-03-0.333D-05-0.712D-03 0.874D-04-0.469D-04
 Coeff-Com:  0.168D-02 0.306D-02 0.197D-01 0.592D-01 0.108D+00 0.809D+00
 Coeff-En:   0.000D+00 0.000D+00 0.000D+00 0.000D+00 0.000D+00 0.000D+00
 Coeff-En:   0.000D+00 0.000D+00 0.000D+00 0.000D+00 0.000D+00 0.100D+01
 Coeff:      0.106D-03-0.212D-03-0.332D-05-0.711D-03 0.873D-04-0.468D-04
 Coeff:      0.168D-02 0.306D-02 0.196D-01 0.592D-01 0.108D+00 0.810D+00
 Gap=     0.077 Goal=   None    Shift=    0.000
 RMSDP=1.73D-05 MaxDP=7.48D-04 DE=-1.70D-04 OVMax= 1.19D-03

 Cycle  13  Pass 1  IDiag  1:
 Density matrix breaks symmetry, PCut= 1.00D-04
 Density has only Abelian symmetry.
 E= -3891.01532424607     Delta-E=       -0.000002366092 Rises=F Damp=F
 DIIS: error= 4.95D-05 at cycle  13 NSaved=  13.
 NSaved=13 IEnMin=13 EnMin= -3891.01532424607     IErMin=13 ErrMin= 4.95D-05
 ErrMax= 4.95D-05 EMaxC= 1.00D-01 BMatC= 6.44D-07 BMatP= 2.21D-06
 IDIUse=1 WtCom= 1.00D+00 WtEn= 0.00D+00
 Coeff-Com:  0.958D-04-0.190D-03 0.211D-04-0.300D-03 0.260D-04-0.850D-06
 Coeff-Com:  0.740D-03 0.548D-03-0.200D-02-0.196D-01 0.196D-02 0.465D+00
 Coeff-Com:  0.553D+00
 Coeff:      0.958D-04-0.190D-03 0.211D-04-0.300D-03 0.260D-04-0.850D-06
 Coeff:      0.740D-03 0.548D-03-0.200D-02-0.196D-01 0.196D-02 0.465D+00
 Coeff:      0.553D+00
 Gap=     0.077 Goal=   None    Shift=    0.000
 RMSDP=7.76D-06 MaxDP=1.95D-04 DE=-2.37D-06 OVMax= 5.46D-04

 Cycle  14  Pass 1  IDiag  1:
 Density matrix breaks symmetry, PCut= 1.00D-04
 Density has only Abelian symmetry.
 E= -3891.01532498149     Delta-E=       -0.000000735421 Rises=F Damp=F
 DIIS: error= 3.30D-05 at cycle  14 NSaved=  14.
 NSaved=14 IEnMin=14 EnMin= -3891.01532498149     IErMin=14 ErrMin= 3.30D-05
 ErrMax= 3.30D-05 EMaxC= 1.00D-01 BMatC= 1.80D-07 BMatP= 6.44D-07
 IDIUse=1 WtCom= 1.00D+00 WtEn= 0.00D+00
 Coeff-Com:  0.370D-04-0.695D-04 0.852D-05-0.865D-04 0.812D-05 0.511D-05
 Coeff-Com:  0.103D-02 0.323D-03-0.459D-02-0.156D-01-0.183D-01-0.148D-01
 Coeff-Com:  0.182D+00 0.870D+00
 Coeff:      0.370D-04-0.695D-04 0.852D-05-0.865D-04 0.812D-05 0.511D-05
 Coeff:      0.103D-02 0.323D-03-0.459D-02-0.156D-01-0.183D-01-0.148D-01
 Coeff:      0.182D+00 0.870D+00
 Gap=     0.077 Goal=   None    Shift=    0.000
 RMSDP=3.18D-06 MaxDP=1.23D-04 DE=-7.35D-07 OVMax= 1.65D-04

 Cycle  15  Pass 1  IDiag  1:
 E= -3891.01532519590     Delta-E=       -0.000000214411 Rises=F Damp=F
 DIIS: error= 6.62D-06 at cycle  15 NSaved=  15.
 NSaved=15 IEnMin=15 EnMin= -3891.01532519590     IErMin=15 ErrMin= 6.62D-06
 ErrMax= 6.62D-06 EMaxC= 1.00D-01 BMatC= 5.76D-09 BMatP= 1.80D-07
 IDIUse=1 WtCom= 1.00D+00 WtEn= 0.00D+00
 Coeff-Com: -0.111D-05 0.365D-05 0.128D-05-0.154D-04 0.444D-05-0.346D-05
 Coeff-Com:  0.339D-03 0.111D-03-0.113D-02-0.203D-02-0.524D-02-0.574D-01
 Coeff-Com:  0.983D-02 0.229D+00 0.827D+00
 Coeff:     -0.111D-05 0.365D-05 0.128D-05-0.154D-04 0.444D-05-0.346D-05
 Coeff:      0.339D-03 0.111D-03-0.113D-02-0.203D-02-0.524D-02-0.574D-01
 Coeff:      0.983D-02 0.229D+00 0.827D+00
 Gap=     0.077 Goal=   None    Shift=    0.000
 RMSDP=8.74D-07 MaxDP=2.84D-05 DE=-2.14D-07 OVMax= 4.57D-05

 Cycle  16  Pass 1  IDiag  1:
 E= -3891.01532520139     Delta-E=       -0.000000005485 Rises=F Damp=F
 DIIS: error= 3.73D-06 at cycle  16 NSaved=  16.
 NSaved=16 IEnMin=16 EnMin= -3891.01532520139     IErMin=16 ErrMin= 3.73D-06
 ErrMax= 3.73D-06 EMaxC= 1.00D-01 BMatC= 1.34D-09 BMatP= 5.76D-09
 IDIUse=1 WtCom= 1.00D+00 WtEn= 0.00D+00
 Coeff-Com: -0.808D-06 0.235D-05-0.356D-06-0.515D-05 0.198D-05-0.355D-06
 Coeff-Com:  0.615D-04 0.809D-04-0.601D-04-0.773D-03-0.154D-02-0.110D-01
 Coeff-Com:  0.170D-03 0.284D-01 0.158D+00 0.827D+00
 Coeff:     -0.808D-06 0.235D-05-0.356D-06-0.515D-05 0.198D-05-0.355D-06
 Coeff:      0.615D-04 0.809D-04-0.601D-04-0.773D-03-0.154D-02-0.110D-01
 Coeff:      0.170D-03 0.284D-01 0.158D+00 0.827D+00
 Gap=     0.077 Goal=   None    Shift=    0.000
 RMSDP=2.67D-07 MaxDP=8.82D-06 DE=-5.49D-09 OVMax= 1.75D-05

 Cycle  17  Pass 1  IDiag  1:
 E= -3891.01532520297     Delta-E=       -0.000000001588 Rises=F Damp=F
 DIIS: error= 1.49D-07 at cycle  17 NSaved=  17.
 NSaved=17 IEnMin=17 EnMin= -3891.01532520297     IErMin=17 ErrMin= 1.49D-07
 ErrMax= 1.49D-07 EMaxC= 1.00D-01 BMatC= 5.26D-12 BMatP= 1.34D-09
 IDIUse=1 WtCom= 1.00D+00 WtEn= 0.00D+00
 Coeff-Com:  0.103D-06-0.199D-06 0.995D-08 0.127D-06-0.142D-06-0.114D-07
 Coeff-Com: -0.364D-05 0.388D-05 0.422D-04-0.268D-04 0.569D-04 0.128D-02
 Coeff-Com: -0.353D-04-0.496D-02-0.877D-02 0.111D+00 0.902D+00
 Coeff:      0.103D-06-0.199D-06 0.995D-08 0.127D-06-0.142D-06-0.114D-07
 Coeff:     -0.364D-05 0.388D-05 0.422D-04-0.268D-04 0.569D-04 0.128D-02
 Coeff:     -0.353D-04-0.496D-02-0.877D-02 0.111D+00 0.902D+00
 Gap=     0.077 Goal=   None    Shift=    0.000
 RMSDP=3.11D-08 MaxDP=7.29D-07 DE=-1.59D-09 OVMax= 2.61D-06

 Cycle  18  Pass 1  IDiag  1:
 E= -3891.01532520298     Delta-E=       -0.000000000011 Rises=F Damp=F
 DIIS: error= 1.19D-07 at cycle  18 NSaved=  18.
 NSaved=18 IEnMin=18 EnMin= -3891.01532520298     IErMin=18 ErrMin= 1.19D-07
 ErrMax= 1.19D-07 EMaxC= 1.00D-01 BMatC= 2.72D-12 BMatP= 5.26D-12
 IDIUse=1 WtCom= 1.00D+00 WtEn= 0.00D+00
 Coeff-Com:  0.334D-07-0.958D-07 0.350D-07 0.276D-06-0.154D-06-0.331D-07
 Coeff-Com: -0.153D-05-0.137D-05 0.118D-04 0.892D-05 0.546D-04 0.579D-03
 Coeff-Com:  0.104D-03-0.106D-02-0.933D-03 0.312D-01 0.338D+00 0.632D+00
 Coeff:      0.334D-07-0.958D-07 0.350D-07 0.276D-06-0.154D-06-0.331D-07
 Coeff:     -0.153D-05-0.137D-05 0.118D-04 0.892D-05 0.546D-04 0.579D-03
 Coeff:      0.104D-03-0.106D-02-0.933D-03 0.312D-01 0.338D+00 0.632D+00
 Gap=     0.077 Goal=   None    Shift=    0.000
 RMSDP=1.04D-08 MaxDP=3.61D-07 DE=-1.09D-11 OVMax= 6.35D-07

 Cycle  19  Pass 1  IDiag  1:
 E= -3891.01532520302     Delta-E=       -0.000000000035 Rises=F Damp=F
 DIIS: error= 3.76D-08 at cycle  19 NSaved=  19.
 NSaved=19 IEnMin=19 EnMin= -3891.01532520302     IErMin=19 ErrMin= 3.76D-08
 ErrMax= 3.76D-08 EMaxC= 1.00D-01 BMatC= 1.65D-13 BMatP= 2.72D-12
 IDIUse=1 WtCom= 1.00D+00 WtEn= 0.00D+00
 Coeff-Com: -0.128D-07 0.219D-07 0.927D-08 0.488D-07-0.425D-07-0.238D-07
 Coeff-Com: -0.371D-06-0.606D-06-0.103D-05 0.225D-05 0.414D-05 0.172D-04
 Coeff-Com:  0.627D-04 0.420D-03 0.729D-03 0.898D-03-0.472D-01 0.402D-01
 Coeff-Com:  0.100D+01
 Coeff:     -0.128D-07 0.219D-07 0.927D-08 0.488D-07-0.425D-07-0.238D-07
 Coeff:     -0.371D-06-0.606D-06-0.103D-05 0.225D-05 0.414D-05 0.172D-04
 Coeff:      0.627D-04 0.420D-03 0.729D-03 0.898D-03-0.472D-01 0.402D-01
 Coeff:      0.100D+01
 Gap=     0.077 Goal=   None    Shift=    0.000
 RMSDP=3.78D-09 MaxDP=1.41D-07 DE=-3.46D-11 OVMax= 2.59D-07

 SCF Done:  E(RB3LYP) =  -3891.01532520     A.U. after   19 cycles
             Convg  =    0.3775D-08             -V/T =  2.0403
 KE= 3.740230016001D+03 PE=-1.324851295413D+04 EE= 3.580340298475D+03
 Leave Link  502 at Tue May  5 13:03:49 2015, MaxMem= 1073741824 cpu:      96.3
 (Enter /usr/g09/l601.exe)
 Copying SCF densities to generalized density rwf, IOpCl= 0 IROHF=0.

 **********************************************************************

            Population analysis using the SCF density.

 **********************************************************************

 Orbital symmetries:
       Occupied  (E) (E) (B2) (A1) (E) (E) (A1) (B2) (B2) (E) (E)
                 (A1) (E) (E) (A1) (B2) (B2) (A1) (E) (E) (A1)
                 (E) (E) (B2) (B2) (A1) (E) (E) (B2) (A1) (E) (E)
                 (E) (E) (A2) (B1) (E) (E) (A2) (B1) (A1) (A1)
                 (A1) (E) (E) (A1) (E) (E) (A1) (A1) (B2) (E) (E)
                 (B2) (E) (E) (A1) (E) (E) (B2) (A1) (B1) (B2)
                 (A1) (B1) (E) (E) (E) (E) (A1) (A1) (B2) (E) (E)
                 (E) (E) (E) (E) (E) (E) (B1) (B2) (A2) (A2) (B1)
       Virtual   (E) (E) (A1) (B2) (B2) (A1) (A1) (A1) (E) (E)
                 (E) (E) (A1) (A1) (E) (E) (E) (E) (A1) (A1) (B1)
                 (B2) (B2) (B1) (E) (E) (B1) (A1) (B2) (E) (E)
                 (E) (E) (A1) (B1) (E) (E) (E) (E) (A1) (A1) (E)
                 (E) (A2) (B2) (B2) (E) (E) (E) (E) (A2) (E) (E)
                 (A1) (B2) (B2) (A1) (E) (E) (B2) (A2) (B2) (B1)
                 (E) (E) (A2) (E) (E) (B1) (E) (E) (A1) (A1) (E)
                 (E) (A1) (B2) (A2) (E) (E) (A2) (E) (E) (A1) (B2)
                 (E) (E) (B1) (B2) (A1) (A1) (B2) (E) (E) (A1)
                 (E) (E) (B1) (E) (E) (B2) (A1) (A1)
 The electronic state is 1-A1.
 Alpha  occ. eigenvalues -- -101.57462-101.57462-101.57462-101.57462-101.57457
 Alpha  occ. eigenvalues -- -101.57457-101.57457-101.57456  -9.50532  -9.50532
 Alpha  occ. eigenvalues --   -9.50532  -9.50529  -9.50524  -9.50524  -9.50523
 Alpha  occ. eigenvalues --   -9.50521  -7.26704  -7.26700  -7.26699  -7.26699
 Alpha  occ. eigenvalues --   -7.26696  -7.26695  -7.26695  -7.26695  -7.26148
 Alpha  occ. eigenvalues --   -7.26147  -7.26147  -7.26147  -7.26143  -7.26143
 Alpha  occ. eigenvalues --   -7.26141  -7.26141  -7.25726  -7.25726  -7.25725
 Alpha  occ. eigenvalues --   -7.25723  -7.25722  -7.25722  -7.25721  -7.25719
 Alpha  occ. eigenvalues --   -3.88819  -3.88290  -2.32732  -2.28283  -2.28283
 Alpha  occ. eigenvalues --   -2.27690  -2.27686  -2.27686  -0.88023  -0.87025
 Alpha  occ. eigenvalues --   -0.85381  -0.85124  -0.85124  -0.84533  -0.84414
 Alpha  occ. eigenvalues --   -0.84414  -0.54314  -0.52251  -0.52251  -0.50828
 Alpha  occ. eigenvalues --   -0.50236  -0.49480  -0.49132  -0.48532  -0.47205
 Alpha  occ. eigenvalues --   -0.44364  -0.44364  -0.41294  -0.41294  -0.40956
 Alpha  occ. eigenvalues --   -0.38670  -0.36985  -0.36132  -0.36132  -0.35958
 Alpha  occ. eigenvalues --   -0.35958  -0.34733  -0.34733  -0.33881  -0.33881
 Alpha  occ. eigenvalues --   -0.33168  -0.32898  -0.32615  -0.32030  -0.31952
 Alpha virt. eigenvalues --   -0.24236  -0.24236  -0.22851  -0.16234  -0.15012
 Alpha virt. eigenvalues --   -0.09952   0.00879   0.02011   0.03645   0.03645
 Alpha virt. eigenvalues --    0.05656   0.05656   0.06271   0.07531   0.14710
 Alpha virt. eigenvalues --    0.14710   0.25854   0.25854   0.28684   0.29542
 Alpha virt. eigenvalues --    0.32271   0.32351   0.33333   0.35630   0.35706
 Alpha virt. eigenvalues --    0.35706   0.36979   0.39141   0.39581   0.40370
 Alpha virt. eigenvalues --    0.40370   0.41895   0.41895   0.43504   0.43898
 Alpha virt. eigenvalues --    0.44710   0.44710   0.46698   0.46698   0.47992
 Alpha virt. eigenvalues --    0.49515   0.50044   0.50044   0.51087   0.53323
 Alpha virt. eigenvalues --    0.53584   0.55124   0.55124   0.56378   0.56378
 Alpha virt. eigenvalues --    0.56734   0.57268   0.57268   0.57432   0.59331
 Alpha virt. eigenvalues --    0.61353   0.65734   0.73909   0.73909   0.81444
 Alpha virt. eigenvalues --    0.82476   0.82479   0.82582   0.82595   0.82595
 Alpha virt. eigenvalues --    0.82815   0.83044   0.83044   0.83056   0.83298
 Alpha virt. eigenvalues --    0.83298   0.84328   0.85420   0.86452   0.86452
 Alpha virt. eigenvalues --    0.86475   0.86706   0.86975   0.87730   0.87730
 Alpha virt. eigenvalues --    0.88968   0.89733   0.89733   0.92449   0.93175
 Alpha virt. eigenvalues --    0.96929   0.96929   1.02759   1.04447   1.09194
 Alpha virt. eigenvalues --    1.13437   1.13819   1.14027   1.14027   1.14397
 Alpha virt. eigenvalues --    1.14703   1.14703   1.20806   1.26512   1.26512
 Alpha virt. eigenvalues --    1.53161   5.15881  11.17458
     Molecular Orbital Coefficients:
                           1         2         3         4         5
                        (E)--O    (E)--O    (B2)--O   (A1)--O   (E)--O
     Eigenvalues --  -101.57462-101.57462-101.57462-101.57462-101.57457
   1 1   Ir 1S          0.00000   0.00000   0.00000  -0.00002   0.00000
   2        2S          0.00000   0.00000   0.00000  -0.00020   0.00000
   3        3S          0.00000   0.00000   0.00000   0.00904   0.00000
   4        4PX        -0.00014   0.00000   0.00000   0.00000   0.00000
   5        4PY         0.00000   0.00014   0.00000   0.00000  -0.00021
   6        4PZ         0.00000   0.00000   0.00000  -0.00032   0.00000
   7        5PX        -0.00209   0.00000   0.00000   0.00000   0.00000
   8        5PY         0.00000   0.00209   0.00000   0.00000  -0.00288
   9        5PZ         0.00000   0.00000   0.00000  -0.00444   0.00000
  10        6PX        -0.00028   0.00000   0.00000   0.00000   0.00000
  11        6PY         0.00000   0.00028   0.00000   0.00000  -0.00062
  12        6PZ         0.00000   0.00000   0.00000  -0.00043   0.00000
  13        7D 0        0.00000   0.00000   0.00000  -0.00007   0.00000
  14        7D+1       -0.00001   0.00000   0.00000   0.00000   0.00000
  15        7D-1        0.00000   0.00001   0.00000   0.00000  -0.00001
  16        7D+2        0.00000   0.00000   0.00013   0.00000   0.00000
  17        7D-2        0.00000   0.00000   0.00000   0.00000   0.00000
  18        8D 0        0.00000   0.00000   0.00000   0.00096   0.00000
  19        8D+1        0.00019   0.00000   0.00000   0.00000   0.00000
  20        8D-1        0.00000  -0.00019   0.00000   0.00000  -0.00024
  21        8D+2        0.00000   0.00000  -0.00005   0.00000   0.00000
  22        8D-2        0.00000   0.00000   0.00000   0.00000   0.00000
  23 2   Ir 1S          0.00000   0.00000   0.00000   0.00033   0.00000
  24        2S          0.00000   0.00000   0.00000   0.00046   0.00000
  25        3S          0.00000   0.00000  -0.00001  -0.01241   0.00000
  26        4PX         0.00025   0.00000   0.00000   0.00000   0.00000
  27        4PY         0.00000  -0.00025   0.00000   0.00000   0.00002
  28        4PZ         0.00000   0.00000   0.00000  -0.00028   0.00000
  29        5PX         0.00353   0.00000   0.00000   0.00000   0.00000
  30        5PY         0.00000  -0.00353   0.00000   0.00000   0.00039
  31        5PZ         0.00000   0.00000   0.00000  -0.00374   0.00000
  32        6PX         0.00068   0.00000   0.00000   0.00000   0.00000
  33        6PY         0.00000  -0.00068   0.00000   0.00000  -0.00006
  34        6PZ         0.00000   0.00000   0.00000  -0.00085   0.00000
  35        7D 0        0.00000   0.00000   0.00000   0.00000   0.00000
  36        7D+1       -0.00001   0.00000   0.00000   0.00000   0.00000
  37        7D-1        0.00000   0.00001   0.00000   0.00000  -0.00001
  38        7D+2        0.00000   0.00000  -0.00015   0.00000   0.00000
  39        7D-2        0.00000   0.00000   0.00000   0.00000   0.00000
  40        8D 0        0.00000   0.00000   0.00000  -0.00036   0.00000
  41        8D+1       -0.00012   0.00000   0.00000   0.00000   0.00000
  42        8D-1        0.00000   0.00012   0.00000   0.00000   0.00028
  43        8D+2        0.00000   0.00000  -0.00026   0.00000   0.00000
  44        8D-2        0.00000   0.00000   0.00000   0.00000   0.00000
  45 3   Cl 1S          0.00000   0.68126  -0.46834   0.48848   0.17990
  46        2S          0.00000   0.00866  -0.00597   0.00621   0.00230
  47        2PX         0.00002   0.00000   0.00000   0.00000   0.00000
  48        2PY         0.00000  -0.00004   0.00005  -0.00003  -0.00001
  49        2PZ         0.00000   0.00002  -0.00002   0.00001  -0.00001
  50        3S          0.00000  -0.00377   0.00247  -0.00266  -0.00078
  51        3PX        -0.00009   0.00000   0.00000   0.00000   0.00000
  52        3PY         0.00000   0.00013  -0.00020   0.00011   0.00001
  53        3PZ         0.00000  -0.00008   0.00009  -0.00004   0.00004
  54        4S          0.00000   0.00422  -0.00189   0.00316   0.00048
  55        4PX        -0.00010   0.00000   0.00000   0.00000   0.00000
  56        4PY         0.00000  -0.00125   0.00060  -0.00072  -0.00003
  57        4PZ         0.00000   0.00043  -0.00023   0.00035  -0.00008
  58        5D 0        0.00000  -0.00005   0.00003   0.00001  -0.00002
  59        5D+1       -0.00002   0.00000   0.00000   0.00000   0.00000
  60        5D-1        0.00000  -0.00005   0.00002  -0.00005   0.00001
  61        5D+2        0.00000  -0.00009   0.00003  -0.00003  -0.00001
  62        5D-2        0.00003   0.00000   0.00000   0.00000   0.00000
  63 4   Cl 1S          0.68126   0.00000   0.46889   0.48797   0.00000
  64        2S          0.00866   0.00000   0.00598   0.00620   0.00000
  65        2PX         0.00004   0.00000   0.00005   0.00003   0.00000
  66        2PY         0.00000  -0.00002   0.00000   0.00000   0.00001
  67        2PZ         0.00002   0.00000   0.00002   0.00001   0.00000
  68        3S         -0.00377   0.00000  -0.00247  -0.00266   0.00000
  69        3PX        -0.00013   0.00000  -0.00020  -0.00011   0.00000
  70        3PY         0.00000   0.00009   0.00000   0.00000  -0.00003
  71        3PZ        -0.00008   0.00000  -0.00009  -0.00004   0.00000
  72        4S          0.00422   0.00000   0.00189   0.00315   0.00000
  73        4PX         0.00125   0.00000   0.00060   0.00072   0.00000
  74        4PY         0.00000   0.00010   0.00000   0.00000   0.00007
  75        4PZ         0.00043   0.00000   0.00023   0.00035   0.00000
  76        5D 0       -0.00005   0.00000  -0.00003   0.00001   0.00000
  77        5D+1        0.00005   0.00000   0.00002   0.00005   0.00000
  78        5D-1        0.00000   0.00002   0.00000   0.00000   0.00001
  79        5D+2        0.00009   0.00000   0.00003   0.00003   0.00000
  80        5D-2        0.00000   0.00003   0.00000   0.00000  -0.00001
  81 5   Cl 1S         -0.68126   0.00000   0.46889   0.48797   0.00000
  82        2S         -0.00866   0.00000   0.00598   0.00620   0.00000
  83        2PX         0.00004   0.00000  -0.00005  -0.00003   0.00000
  84        2PY         0.00000  -0.00002   0.00000   0.00000   0.00001
  85        2PZ        -0.00002   0.00000   0.00002   0.00001   0.00000
  86        3S          0.00377   0.00000  -0.00247  -0.00266   0.00000
  87        3PX        -0.00013   0.00000   0.00020   0.00011   0.00000
  88        3PY         0.00000   0.00009   0.00000   0.00000  -0.00003
  89        3PZ         0.00008   0.00000  -0.00009  -0.00004   0.00000
  90        4S         -0.00422   0.00000   0.00189   0.00315   0.00000
  91        4PX         0.00125   0.00000  -0.00060  -0.00072   0.00000
  92        4PY         0.00000   0.00010   0.00000   0.00000   0.00007
  93        4PZ        -0.00043   0.00000   0.00023   0.00035   0.00000
  94        5D 0        0.00005   0.00000  -0.00003   0.00001   0.00000
  95        5D+1        0.00005   0.00000  -0.00002  -0.00005   0.00000
  96        5D-1        0.00000   0.00002   0.00000   0.00000   0.00001
  97        5D+2       -0.00009   0.00000   0.00003   0.00003   0.00000
  98        5D-2        0.00000  -0.00003   0.00000   0.00000   0.00001
  99 6   Cl 1S          0.00000  -0.68126  -0.46834   0.48848  -0.17990
 100        2S          0.00000  -0.00866  -0.00597   0.00621  -0.00230
 101        2PX         0.00002   0.00000   0.00000   0.00000   0.00000
 102        2PY         0.00000  -0.00004  -0.00005   0.00003  -0.00001
 103        2PZ         0.00000  -0.00002  -0.00002   0.00001   0.00001
 104        3S          0.00000   0.00377   0.00247  -0.00266   0.00078
 105        3PX        -0.00009   0.00000   0.00000   0.00000   0.00000
 106        3PY         0.00000   0.00013   0.00020  -0.00011   0.00001
 107        3PZ         0.00000   0.00008   0.00009  -0.00004  -0.00004
 108        4S          0.00000  -0.00422  -0.00189   0.00316  -0.00048
 109        4PX        -0.00010   0.00000   0.00000   0.00000   0.00000
 110        4PY         0.00000  -0.00125  -0.00060   0.00072  -0.00003
 111        4PZ         0.00000  -0.00043  -0.00023   0.00035   0.00008
 112        5D 0        0.00000   0.00005   0.00003   0.00001   0.00002
 113        5D+1       -0.00002   0.00000   0.00000   0.00000   0.00000
 114        5D-1        0.00000  -0.00005  -0.00002   0.00005   0.00001
 115        5D+2        0.00000   0.00009   0.00003  -0.00003   0.00001
 116        5D-2       -0.00003   0.00000   0.00000   0.00000   0.00000
 117 7   Cl 1S          0.00000  -0.17989   0.16918  -0.09947   0.68126
 118        2S          0.00000  -0.00228   0.00216  -0.00126   0.00866
 119        2PX        -0.00001   0.00000   0.00000   0.00000   0.00000
 120        2PY         0.00000   0.00001  -0.00002   0.00001  -0.00004
 121        2PZ         0.00000   0.00001  -0.00002   0.00000  -0.00001
 122        3S          0.00000   0.00118  -0.00102   0.00063  -0.00366
 123        3PX         0.00007   0.00000   0.00000   0.00000   0.00000
 124        3PY         0.00000  -0.00006   0.00010  -0.00005   0.00012
 125        3PZ         0.00000  -0.00008   0.00011  -0.00002   0.00005
 126        4S          0.00000  -0.00167   0.00083  -0.00086   0.00391
 127        4PX        -0.00001   0.00000   0.00000   0.00000   0.00000
 128        4PY         0.00000   0.00059  -0.00024   0.00009  -0.00110
 129        4PZ         0.00000   0.00029  -0.00024   0.00011  -0.00034
 130        5D 0        0.00000   0.00001   0.00000  -0.00002  -0.00005
 131        5D+1        0.00000   0.00000   0.00000   0.00000   0.00000
 132        5D-1        0.00000  -0.00003   0.00001  -0.00002   0.00004
 133        5D+2        0.00000   0.00004  -0.00001  -0.00002  -0.00009
 134        5D-2       -0.00002   0.00000   0.00000   0.00000   0.00000
 135 8   Cl 1S         -0.17986   0.00000  -0.16926  -0.09926   0.00000
 136        2S         -0.00228   0.00000  -0.00216  -0.00126   0.00000
 137        2PX        -0.00001   0.00000  -0.00002  -0.00001   0.00000
 138        2PY         0.00000   0.00001   0.00000   0.00000  -0.00001
 139        2PZ         0.00001   0.00000   0.00002   0.00000   0.00000
 140        3S          0.00118   0.00000   0.00102   0.00063   0.00000
 141        3PX         0.00006   0.00000   0.00010   0.00005   0.00000
 142        3PY         0.00000  -0.00007   0.00000   0.00000   0.00006
 143        3PZ        -0.00008   0.00000  -0.00011  -0.00002   0.00000
 144        4S         -0.00167   0.00000  -0.00083  -0.00086   0.00000
 145        4PX        -0.00059   0.00000  -0.00024  -0.00009   0.00000
 146        4PY         0.00000   0.00001   0.00000   0.00000   0.00012
 147        4PZ         0.00029   0.00000   0.00024   0.00011   0.00000
 148        5D 0        0.00001   0.00000   0.00000  -0.00002   0.00000
 149        5D+1        0.00003   0.00000   0.00001   0.00002   0.00000
 150        5D-1        0.00000   0.00000   0.00000   0.00000  -0.00003
 151        5D+2       -0.00004   0.00000  -0.00001   0.00002   0.00000
 152        5D-2        0.00000  -0.00002   0.00000   0.00000   0.00003
 153 9   Cl 1S          0.17986   0.00000  -0.16926  -0.09926   0.00000
 154        2S          0.00228   0.00000  -0.00216  -0.00126   0.00000
 155        2PX        -0.00001   0.00000   0.00002   0.00001   0.00000
 156        2PY         0.00000   0.00001   0.00000   0.00000  -0.00001
 157        2PZ        -0.00001   0.00000   0.00002   0.00000   0.00000
 158        3S         -0.00118   0.00000   0.00102   0.00063   0.00000
 159        3PX         0.00006   0.00000  -0.00010  -0.00005   0.00000
 160        3PY         0.00000  -0.00007   0.00000   0.00000   0.00006
 161        3PZ         0.00008   0.00000  -0.00011  -0.00002   0.00000
 162        4S          0.00167   0.00000  -0.00083  -0.00086   0.00000
 163        4PX        -0.00059   0.00000   0.00024   0.00009   0.00000
 164        4PY         0.00000   0.00001   0.00000   0.00000   0.00012
 165        4PZ        -0.00029   0.00000   0.00024   0.00011   0.00000
 166        5D 0       -0.00001   0.00000   0.00000  -0.00002   0.00000
 167        5D+1        0.00003   0.00000  -0.00001  -0.00002   0.00000
 168        5D-1        0.00000   0.00000   0.00000   0.00000  -0.00003
 169        5D+2        0.00004   0.00000  -0.00001   0.00002   0.00000
 170        5D-2        0.00000   0.00002   0.00000   0.00000  -0.00003
 171 10  Cl 1S          0.00000   0.17989   0.16918  -0.09947  -0.68126
 172        2S          0.00000   0.00228   0.00216  -0.00126  -0.00866
 173        2PX        -0.00001   0.00000   0.00000   0.00000   0.00000
 174        2PY         0.00000   0.00001   0.00002  -0.00001  -0.00004
 175        2PZ         0.00000  -0.00001  -0.00002   0.00000   0.00001
 176        3S          0.00000  -0.00118  -0.00102   0.00063   0.00366
 177        3PX         0.00007   0.00000   0.00000   0.00000   0.00000
 178        3PY         0.00000  -0.00006  -0.00010   0.00005   0.00012
 179        3PZ         0.00000   0.00008   0.00011  -0.00002  -0.00005
 180        4S          0.00000   0.00167   0.00083  -0.00086  -0.00391
 181        4PX        -0.00001   0.00000   0.00000   0.00000   0.00000
 182        4PY         0.00000   0.00059   0.00024  -0.00009  -0.00110
 183        4PZ         0.00000  -0.00029  -0.00024   0.00011   0.00034
 184        5D 0        0.00000  -0.00001   0.00000  -0.00002   0.00005
 185        5D+1        0.00000   0.00000   0.00000   0.00000   0.00000
 186        5D-1        0.00000  -0.00003  -0.00001   0.00002   0.00004
 187        5D+2        0.00000  -0.00004  -0.00001  -0.00002   0.00009
 188        5D-2        0.00002   0.00000   0.00000   0.00000   0.00000
                           6         7         8         9        10
                        (E)--O    (A1)--O   (B2)--O   (B2)--O   (E)--O
     Eigenvalues --  -101.57457-101.57457-101.57456  -9.50532  -9.50532
   1 1   Ir 1S          0.00000   0.00035   0.00000   0.00000   0.00000
   2        2S          0.00000   0.00041   0.00000   0.00000   0.00000
   3        3S          0.00000  -0.00964   0.00000   0.00000   0.00000
   4        4PX         0.00021   0.00000   0.00000   0.00000   0.00101
   5        4PY         0.00000   0.00000   0.00000   0.00000   0.00000
   6        4PZ         0.00000   0.00017   0.00000   0.00000   0.00000
   7        5PX         0.00288   0.00000   0.00000   0.00000   0.01395
   8        5PY         0.00000   0.00000   0.00000   0.00000   0.00000
   9        5PZ         0.00000   0.00217   0.00000   0.00000   0.00000
  10        6PX         0.00062   0.00000   0.00000   0.00000   0.00260
  11        6PY         0.00000   0.00000   0.00000   0.00000   0.00000
  12        6PZ         0.00000   0.00075   0.00000   0.00000   0.00000
  13        7D 0        0.00000  -0.00003   0.00000   0.00000   0.00000
  14        7D+1        0.00001   0.00000   0.00000   0.00000   0.00004
  15        7D-1        0.00000   0.00000   0.00000   0.00000   0.00000
  16        7D+2        0.00000   0.00000  -0.00008  -0.00066   0.00000
  17        7D-2        0.00000   0.00000   0.00000   0.00000   0.00000
  18        8D 0        0.00000   0.00002   0.00000   0.00000   0.00000
  19        8D+1        0.00024   0.00000   0.00000   0.00000  -0.00056
  20        8D-1        0.00000   0.00000   0.00000   0.00000   0.00000
  21        8D+2        0.00000   0.00000  -0.00038  -0.00023   0.00000
  22        8D-2        0.00000   0.00000   0.00000   0.00000   0.00000
  23 2   Ir 1S          0.00000   0.00012   0.00000   0.00000   0.00000
  24        2S          0.00000  -0.00002   0.00000   0.00000   0.00000
  25        3S          0.00000   0.00455   0.00000   0.00000   0.00000
  26        4PX        -0.00002   0.00000   0.00000   0.00000  -0.00129
  27        4PY         0.00000   0.00000   0.00000   0.00000   0.00000
  28        4PZ         0.00000   0.00023   0.00000   0.00000   0.00000
  29        5PX        -0.00039   0.00000   0.00000   0.00000  -0.01760
  30        5PY         0.00000   0.00000   0.00000   0.00000   0.00000
  31        5PZ         0.00000   0.00324   0.00000   0.00000   0.00000
  32        6PX         0.00006   0.00000   0.00000   0.00000  -0.00373
  33        6PY         0.00000   0.00000   0.00000   0.00000   0.00000
  34        6PZ         0.00000   0.00010   0.00000   0.00000   0.00000
  35        7D 0        0.00000  -0.00007   0.00000   0.00000   0.00000
  36        7D+1        0.00001   0.00000   0.00000   0.00000   0.00002
  37        7D-1        0.00000   0.00000   0.00000   0.00000   0.00000
  38        7D+2        0.00000   0.00000   0.00005   0.00067   0.00000
  39        7D-2        0.00000   0.00000   0.00000   0.00000   0.00000
  40        8D 0        0.00000   0.00089   0.00000   0.00000   0.00000
  41        8D+1       -0.00028   0.00000   0.00000   0.00000   0.00020
  42        8D-1        0.00000   0.00000   0.00000   0.00000   0.00000
  43        8D+2        0.00000   0.00000  -0.00029   0.00086   0.00000
  44        8D-2        0.00000   0.00000   0.00000   0.00000   0.00000
  45 3   Cl 1S          0.00000   0.09945  -0.16921   0.11669   0.00000
  46        2S          0.00000   0.00126  -0.00216  -0.41986   0.00000
  47        2PX        -0.00001   0.00000   0.00000   0.00000  -0.00008
  48        2PY         0.00000   0.00000   0.00001   0.00148   0.00000
  49        2PZ         0.00000   0.00000   0.00001  -0.00034   0.00000
  50        3S          0.00000  -0.00045   0.00072  -0.01764   0.00000
  51        3PX         0.00003   0.00000   0.00000   0.00000   0.00044
  52        3PY         0.00000   0.00000  -0.00003   0.00108   0.00000
  53        3PZ         0.00000   0.00000  -0.00007  -0.00056   0.00000
  54        4S          0.00000   0.00041  -0.00049   0.00972   0.00000
  55        4PX        -0.00007   0.00000   0.00000   0.00000   0.00037
  56        4PY         0.00000  -0.00021   0.00018  -0.00280   0.00000
  57        4PZ         0.00000   0.00003   0.00012   0.00134   0.00000
  58        5D 0        0.00000  -0.00002   0.00003  -0.00008   0.00000
  59        5D+1       -0.00001   0.00000   0.00000   0.00000   0.00009
  60        5D-1        0.00000  -0.00001   0.00001  -0.00004   0.00000
  61        5D+2        0.00000  -0.00003   0.00002   0.00004   0.00000
  62        5D-2       -0.00001   0.00000   0.00000   0.00000  -0.00014
  63 4   Cl 1S          0.17987   0.09930   0.16926  -0.11670  -0.17385
  64        2S          0.00230   0.00126   0.00216   0.41990   0.62571
  65        2PX         0.00001   0.00000   0.00001   0.00148   0.00233
  66        2PY         0.00000   0.00000   0.00000   0.00000   0.00000
  67        2PZ        -0.00001   0.00000  -0.00001   0.00034   0.00056
  68        3S         -0.00078  -0.00045  -0.00072   0.01765   0.02703
  69        3PX        -0.00001   0.00000  -0.00003   0.00108   0.00087
  70        3PY         0.00000   0.00000   0.00000   0.00000   0.00000
  71        3PZ         0.00004   0.00000   0.00007   0.00056   0.00052
  72        4S          0.00048   0.00041   0.00049  -0.00972  -0.02162
  73        4PX         0.00003   0.00021   0.00018  -0.00280  -0.00610
  74        4PY         0.00000   0.00000   0.00000   0.00000   0.00000
  75        4PZ        -0.00008   0.00003  -0.00012  -0.00134  -0.00226
  76        5D 0       -0.00002  -0.00002  -0.00003   0.00008   0.00015
  77        5D+1       -0.00001   0.00001   0.00001  -0.00004  -0.00020
  78        5D-1        0.00000   0.00000   0.00000   0.00000   0.00000
  79        5D+2        0.00001   0.00003   0.00002   0.00004  -0.00020
  80        5D-2        0.00000   0.00000   0.00000   0.00000   0.00000
  81 5   Cl 1S         -0.17987   0.09930   0.16926  -0.11670   0.17385
  82        2S         -0.00230   0.00126   0.00216   0.41990  -0.62571
  83        2PX         0.00001   0.00000  -0.00001  -0.00148   0.00233
  84        2PY         0.00000   0.00000   0.00000   0.00000   0.00000
  85        2PZ         0.00001   0.00000  -0.00001   0.00034  -0.00056
  86        3S          0.00078  -0.00045  -0.00072   0.01765  -0.02703
  87        3PX        -0.00001   0.00000   0.00003  -0.00108   0.00087
  88        3PY         0.00000   0.00000   0.00000   0.00000   0.00000
  89        3PZ        -0.00004   0.00000   0.00007   0.00056  -0.00052
  90        4S         -0.00048   0.00041   0.00049  -0.00972   0.02162
  91        4PX         0.00003  -0.00021  -0.00018   0.00280  -0.00610
  92        4PY         0.00000   0.00000   0.00000   0.00000   0.00000
  93        4PZ         0.00008   0.00003  -0.00012  -0.00134   0.00226
  94        5D 0        0.00002  -0.00002  -0.00003   0.00008  -0.00015
  95        5D+1       -0.00001  -0.00001  -0.00001   0.00004  -0.00020
  96        5D-1        0.00000   0.00000   0.00000   0.00000   0.00000
  97        5D+2       -0.00001   0.00003   0.00002   0.00004   0.00020
  98        5D-2        0.00000   0.00000   0.00000   0.00000   0.00000
  99 6   Cl 1S          0.00000   0.09945  -0.16921   0.11669   0.00000
 100        2S          0.00000   0.00126  -0.00216  -0.41986   0.00000
 101        2PX        -0.00001   0.00000   0.00000   0.00000  -0.00008
 102        2PY         0.00000   0.00000  -0.00001  -0.00148   0.00000
 103        2PZ         0.00000   0.00000   0.00001  -0.00034   0.00000
 104        3S          0.00000  -0.00045   0.00072  -0.01764   0.00000
 105        3PX         0.00003   0.00000   0.00000   0.00000   0.00044
 106        3PY         0.00000   0.00000   0.00003  -0.00108   0.00000
 107        3PZ         0.00000   0.00000  -0.00007  -0.00056   0.00000
 108        4S          0.00000   0.00041  -0.00049   0.00972   0.00000
 109        4PX        -0.00007   0.00000   0.00000   0.00000   0.00037
 110        4PY         0.00000   0.00021  -0.00018   0.00280   0.00000
 111        4PZ         0.00000   0.00003   0.00012   0.00134   0.00000
 112        5D 0        0.00000  -0.00002   0.00003  -0.00008   0.00000
 113        5D+1       -0.00001   0.00000   0.00000   0.00000   0.00009
 114        5D-1        0.00000   0.00001  -0.00001   0.00004   0.00000
 115        5D+2        0.00000  -0.00003   0.00002   0.00004   0.00000
 116        5D-2        0.00001   0.00000   0.00000   0.00000   0.00014
 117 7   Cl 1S          0.00000   0.48840  -0.46843  -0.08232   0.00000
 118        2S          0.00000   0.00620  -0.00597   0.29623   0.00000
 119        2PX         0.00001   0.00000   0.00000   0.00000   0.00007
 120        2PY         0.00000  -0.00003   0.00004  -0.00103   0.00000
 121        2PZ         0.00000  -0.00001   0.00001  -0.00020   0.00000
 122        3S          0.00000  -0.00263   0.00236   0.01279   0.00000
 123        3PX        -0.00006   0.00000   0.00000   0.00000  -0.00041
 124        3PY         0.00000   0.00010  -0.00017  -0.00084   0.00000
 125        3PZ         0.00000   0.00003  -0.00002  -0.00060   0.00000
 126        4S          0.00000   0.00307  -0.00176  -0.00724   0.00000
 127        4PX        -0.00012   0.00000   0.00000   0.00000  -0.00010
 128        4PY         0.00000  -0.00075   0.00058   0.00203   0.00000
 129        4PZ         0.00000  -0.00033   0.00010   0.00136   0.00000
 130        5D 0        0.00000   0.00000   0.00004   0.00003   0.00000
 131        5D+1        0.00003   0.00000   0.00000   0.00000   0.00004
 132        5D-1        0.00000   0.00005  -0.00002  -0.00003   0.00000
 133        5D+2        0.00000  -0.00004   0.00003  -0.00004   0.00000
 134        5D-2        0.00003   0.00000   0.00000   0.00000   0.00012
 135 8   Cl 1S          0.68127   0.48805   0.46881   0.08232   0.10276
 136        2S          0.00866   0.00620   0.00598  -0.29623  -0.36995
 137        2PX         0.00004   0.00003   0.00004  -0.00103  -0.00137
 138        2PY         0.00000   0.00000   0.00000   0.00000   0.00000
 139        2PZ        -0.00001  -0.00001  -0.00001   0.00020   0.00031
 140        3S         -0.00366  -0.00263  -0.00236  -0.01279  -0.01656
 141        3PX        -0.00012  -0.00010  -0.00017  -0.00084  -0.00058
 142        3PY         0.00000   0.00000   0.00000   0.00000   0.00000
 143        3PZ         0.00005   0.00003   0.00002   0.00060   0.00047
 144        4S          0.00391   0.00306   0.00177   0.00724   0.01449
 145        4PX         0.00110   0.00075   0.00058   0.00203   0.00442
 146        4PY         0.00000   0.00000   0.00000   0.00000   0.00000
 147        4PZ        -0.00034  -0.00033  -0.00010  -0.00136  -0.00187
 148        5D 0       -0.00005   0.00000  -0.00004  -0.00003  -0.00007
 149        5D+1       -0.00004  -0.00005  -0.00002  -0.00003  -0.00017
 150        5D-1        0.00000   0.00000   0.00000   0.00000   0.00000
 151        5D+2        0.00009   0.00004   0.00003  -0.00004   0.00016
 152        5D-2        0.00000   0.00000   0.00000   0.00000   0.00000
 153 9   Cl 1S         -0.68127   0.48805   0.46881   0.08232  -0.10276
 154        2S         -0.00866   0.00620   0.00598  -0.29623   0.36995
 155        2PX         0.00004  -0.00003  -0.00004   0.00103  -0.00137
 156        2PY         0.00000   0.00000   0.00000   0.00000   0.00000
 157        2PZ         0.00001  -0.00001  -0.00001   0.00020  -0.00031
 158        3S          0.00366  -0.00263  -0.00236  -0.01279   0.01656
 159        3PX        -0.00012   0.00010   0.00017   0.00084  -0.00058
 160        3PY         0.00000   0.00000   0.00000   0.00000   0.00000
 161        3PZ        -0.00005   0.00003   0.00002   0.00060  -0.00047
 162        4S         -0.00391   0.00306   0.00177   0.00724  -0.01449
 163        4PX         0.00110  -0.00075  -0.00058  -0.00203   0.00442
 164        4PY         0.00000   0.00000   0.00000   0.00000   0.00000
 165        4PZ         0.00034  -0.00033  -0.00010  -0.00136   0.00187
 166        5D 0        0.00005   0.00000  -0.00004  -0.00003   0.00007
 167        5D+1       -0.00004   0.00005   0.00002   0.00003  -0.00017
 168        5D-1        0.00000   0.00000   0.00000   0.00000   0.00000
 169        5D+2       -0.00009   0.00004   0.00003  -0.00004  -0.00016
 170        5D-2        0.00000   0.00000   0.00000   0.00000   0.00000
 171 10  Cl 1S          0.00000   0.48840  -0.46843  -0.08232   0.00000
 172        2S          0.00000   0.00620  -0.00597   0.29623   0.00000
 173        2PX         0.00001   0.00000   0.00000   0.00000   0.00007
 174        2PY         0.00000   0.00003  -0.00004   0.00103   0.00000
 175        2PZ         0.00000  -0.00001   0.00001  -0.00020   0.00000
 176        3S          0.00000  -0.00263   0.00236   0.01279   0.00000
 177        3PX        -0.00006   0.00000   0.00000   0.00000  -0.00041
 178        3PY         0.00000  -0.00010   0.00017   0.00084   0.00000
 179        3PZ         0.00000   0.00003  -0.00002  -0.00060   0.00000
 180        4S          0.00000   0.00307  -0.00176  -0.00724   0.00000
 181        4PX        -0.00012   0.00000   0.00000   0.00000  -0.00010
 182        4PY         0.00000   0.00075  -0.00058  -0.00203   0.00000
 183        4PZ         0.00000  -0.00033   0.00010   0.00136   0.00000
 184        5D 0        0.00000   0.00000   0.00004   0.00003   0.00000
 185        5D+1        0.00003   0.00000   0.00000   0.00000   0.00004
 186        5D-1        0.00000  -0.00005   0.00002   0.00003   0.00000
 187        5D+2        0.00000  -0.00004   0.00003  -0.00004   0.00000
 188        5D-2       -0.00003   0.00000   0.00000   0.00000  -0.00012
                          11        12        13        14        15
                        (E)--O    (A1)--O   (E)--O    (E)--O    (A1)--O
     Eigenvalues --    -9.50532  -9.50529  -9.50524  -9.50524  -9.50523
   1 1   Ir 1S          0.00000  -0.00017   0.00000   0.00000  -0.00101
   2        2S          0.00000   0.00102   0.00000   0.00000  -0.00142
   3        3S          0.00000  -0.05303   0.00000   0.00000   0.03347
   4        4PX         0.00000   0.00000   0.00000  -0.00084   0.00000
   5        4PY        -0.00101   0.00000   0.00084   0.00000   0.00000
   6        4PZ         0.00000   0.00188   0.00000   0.00000  -0.00048
   7        5PX         0.00000   0.00000   0.00000  -0.01121   0.00000
   8        5PY        -0.01395   0.00000   0.01121   0.00000   0.00000
   9        5PZ         0.00000   0.02500   0.00000   0.00000  -0.00463
  10        6PX         0.00000   0.00000   0.00000  -0.00301   0.00000
  11        6PY        -0.00260   0.00000   0.00301   0.00000   0.00000
  12        6PZ         0.00000   0.00245   0.00000   0.00000  -0.00269
  13        7D 0        0.00000   0.00036   0.00000   0.00000   0.00029
  14        7D+1        0.00000   0.00000   0.00000   0.00002   0.00000
  15        7D-1       -0.00004   0.00000  -0.00002   0.00000   0.00000
  16        7D+2        0.00000   0.00000   0.00000   0.00000   0.00000
  17        7D-2        0.00000   0.00000   0.00000   0.00000   0.00000
  18        8D 0        0.00000  -0.00546   0.00000   0.00000  -0.00117
  19        8D+1        0.00000   0.00000   0.00000  -0.00142   0.00000
  20        8D-1        0.00056   0.00000   0.00142   0.00000   0.00000
  21        8D+2        0.00000   0.00000   0.00000   0.00000   0.00000
  22        8D-2        0.00000   0.00000   0.00000   0.00000   0.00000
  23 2   Ir 1S          0.00000  -0.00046   0.00000   0.00000  -0.00092
  24        2S          0.00000  -0.00166   0.00000   0.00000  -0.00055
  25        3S          0.00000   0.06255   0.00000   0.00000  -0.00432
  26        4PX         0.00000   0.00000   0.00000  -0.00025   0.00000
  27        4PY         0.00129   0.00000   0.00025   0.00000   0.00000
  28        4PZ         0.00000   0.00180   0.00000   0.00000  -0.00072
  29        5PX         0.00000   0.00000   0.00000  -0.00309   0.00000
  30        5PY         0.01760   0.00000   0.00309   0.00000   0.00000
  31        5PZ         0.00000   0.02290   0.00000   0.00000  -0.01102
  32        6PX         0.00000   0.00000   0.00000  -0.00139   0.00000
  33        6PY         0.00373   0.00000   0.00139   0.00000   0.00000
  34        6PZ         0.00000   0.00356   0.00000   0.00000   0.00072
  35        7D 0        0.00000  -0.00012   0.00000   0.00000   0.00044
  36        7D+1        0.00000   0.00000   0.00000  -0.00003   0.00000
  37        7D-1       -0.00002   0.00000   0.00003   0.00000   0.00000
  38        7D+2        0.00000   0.00000   0.00000   0.00000   0.00000
  39        7D-2        0.00000   0.00000   0.00000   0.00000   0.00000
  40        8D 0        0.00000   0.00372   0.00000   0.00000  -0.00416
  41        8D+1        0.00000   0.00000   0.00000   0.00151   0.00000
  42        8D-1       -0.00020   0.00000  -0.00151   0.00000   0.00000
  43        8D+2        0.00000   0.00000   0.00000   0.00000   0.00000
  44        8D-2        0.00000   0.00000   0.00000   0.00000   0.00000
  45 3   Cl 1S         -0.17384  -0.12739  -0.10282   0.00000  -0.06460
  46        2S          0.62569   0.45841   0.36989   0.00000   0.23243
  47        2PX         0.00000   0.00000   0.00000   0.00001   0.00000
  48        2PY        -0.00233  -0.00168  -0.00140   0.00000  -0.00088
  49        2PZ         0.00056   0.00044   0.00039   0.00000   0.00023
  50        3S          0.02703   0.01929   0.01478   0.00000   0.00936
  51        3PX         0.00000   0.00000   0.00000  -0.00006   0.00000
  52        3PY        -0.00087  -0.00075  -0.00038   0.00000  -0.00024
  53        3PZ         0.00052   0.00024  -0.00004   0.00000   0.00004
  54        4S         -0.02162  -0.01507  -0.00927   0.00000  -0.00695
  55        4PX         0.00000   0.00000   0.00000   0.00049   0.00000
  56        4PY         0.00610   0.00293   0.00194   0.00000   0.00220
  57        4PZ        -0.00226  -0.00159  -0.00022   0.00000  -0.00058
  58        5D 0        0.00015  -0.00009   0.00012   0.00000   0.00008
  59        5D+1        0.00000   0.00000   0.00000   0.00007   0.00000
  60        5D-1        0.00020   0.00016   0.00002   0.00000   0.00008
  61        5D+2        0.00020  -0.00008   0.00003   0.00000   0.00013
  62        5D-2        0.00000   0.00000   0.00000  -0.00001   0.00000
  63 4   Cl 1S          0.00000  -0.12738   0.00000  -0.10281  -0.06459
  64        2S          0.00000   0.45839   0.00000   0.36986   0.23238
  65        2PX         0.00000   0.00168   0.00000   0.00140   0.00088
  66        2PY         0.00008   0.00000  -0.00001   0.00000   0.00000
  67        2PZ         0.00000   0.00044   0.00000   0.00039   0.00023
  68        3S          0.00000   0.01928   0.00000   0.01477   0.00935
  69        3PX         0.00000   0.00075   0.00000   0.00038   0.00023
  70        3PY        -0.00044   0.00000   0.00006   0.00000   0.00000
  71        3PZ         0.00000   0.00024   0.00000  -0.00004   0.00004
  72        4S          0.00000  -0.01507   0.00000  -0.00927  -0.00695
  73        4PX         0.00000  -0.00293   0.00000  -0.00194  -0.00219
  74        4PY        -0.00037   0.00000  -0.00049   0.00000   0.00000
  75        4PZ         0.00000  -0.00159   0.00000  -0.00022  -0.00058
  76        5D 0        0.00000  -0.00009   0.00000   0.00012   0.00008
  77        5D+1        0.00000  -0.00016   0.00000  -0.00002  -0.00008
  78        5D-1       -0.00009   0.00000  -0.00007   0.00000   0.00000
  79        5D+2        0.00000   0.00008   0.00000  -0.00003  -0.00013
  80        5D-2       -0.00014   0.00000  -0.00001   0.00000   0.00000
  81 5   Cl 1S          0.00000  -0.12738   0.00000   0.10281  -0.06459
  82        2S          0.00000   0.45839   0.00000  -0.36986   0.23238
  83        2PX         0.00000  -0.00168   0.00000   0.00140  -0.00088
  84        2PY         0.00008   0.00000  -0.00001   0.00000   0.00000
  85        2PZ         0.00000   0.00044   0.00000  -0.00039   0.00023
  86        3S          0.00000   0.01928   0.00000  -0.01477   0.00935
  87        3PX         0.00000  -0.00075   0.00000   0.00038  -0.00023
  88        3PY        -0.00044   0.00000   0.00006   0.00000   0.00000
  89        3PZ         0.00000   0.00024   0.00000   0.00004   0.00004
  90        4S          0.00000  -0.01507   0.00000   0.00927  -0.00695
  91        4PX         0.00000   0.00293   0.00000  -0.00194   0.00219
  92        4PY        -0.00037   0.00000  -0.00049   0.00000   0.00000
  93        4PZ         0.00000  -0.00159   0.00000   0.00022  -0.00058
  94        5D 0        0.00000  -0.00009   0.00000  -0.00012   0.00008
  95        5D+1        0.00000   0.00016   0.00000  -0.00002   0.00008
  96        5D-1       -0.00009   0.00000  -0.00007   0.00000   0.00000
  97        5D+2        0.00000   0.00008   0.00000   0.00003  -0.00013
  98        5D-2        0.00014   0.00000   0.00001   0.00000   0.00000
  99 6   Cl 1S          0.17384  -0.12739   0.10282   0.00000  -0.06460
 100        2S         -0.62569   0.45841  -0.36989   0.00000   0.23243
 101        2PX         0.00000   0.00000   0.00000   0.00001   0.00000
 102        2PY        -0.00233   0.00168  -0.00140   0.00000   0.00088
 103        2PZ        -0.00056   0.00044  -0.00039   0.00000   0.00023
 104        3S         -0.02703   0.01929  -0.01478   0.00000   0.00936
 105        3PX         0.00000   0.00000   0.00000  -0.00006   0.00000
 106        3PY        -0.00087   0.00075  -0.00038   0.00000   0.00024
 107        3PZ        -0.00052   0.00024   0.00004   0.00000   0.00004
 108        4S          0.02162  -0.01507   0.00927   0.00000  -0.00695
 109        4PX         0.00000   0.00000   0.00000   0.00049   0.00000
 110        4PY         0.00610  -0.00293   0.00194   0.00000  -0.00220
 111        4PZ         0.00226  -0.00159   0.00022   0.00000  -0.00058
 112        5D 0       -0.00015  -0.00009  -0.00012   0.00000   0.00008
 113        5D+1        0.00000   0.00000   0.00000   0.00007   0.00000
 114        5D-1        0.00020  -0.00016   0.00002   0.00000  -0.00008
 115        5D+2       -0.00020  -0.00008  -0.00003   0.00000   0.00013
 116        5D-2        0.00000   0.00000   0.00000   0.00001   0.00000
 117 7   Cl 1S          0.10277   0.06458  -0.17387   0.00000  -0.12740
 118        2S         -0.36998  -0.23242   0.62564   0.00000   0.45842
 119        2PX         0.00000   0.00000   0.00000  -0.00003   0.00000
 120        2PY         0.00137   0.00084  -0.00235   0.00000  -0.00170
 121        2PZ         0.00031   0.00022  -0.00061   0.00000  -0.00045
 122        3S         -0.01656  -0.01003   0.02598   0.00000   0.01895
 123        3PX         0.00000   0.00000   0.00000   0.00016   0.00000
 124        3PY         0.00058   0.00047  -0.00075   0.00000  -0.00063
 125        3PZ         0.00047   0.00017  -0.00022   0.00000  -0.00017
 126        4S          0.01449   0.00806  -0.01855   0.00000  -0.01452
 127        4PX         0.00000   0.00000   0.00000   0.00061   0.00000
 128        4PY        -0.00442  -0.00107   0.00465   0.00000   0.00351
 129        4PZ        -0.00187  -0.00094   0.00128   0.00000   0.00140
[...]
  64        2S          1.99745
  65        2PX         1.98889
  66        2PY         1.99257
  67        2PZ         1.99083
  68        3S          1.44414
  69        3PX         1.00739
  70        3PY         1.36087
  71        3PZ         1.18317
  72        4S          0.47270
  73        4PX         0.33124
  74        4PY         0.59282
  75        4PZ         0.51974
  76        5D 0        0.00240
  77        5D+1        0.00451
  78        5D-1        0.00048
  79        5D+2        0.00623
  80        5D-2        0.00417
  81 5   Cl 1S          1.99965
  82        2S          1.99745
  83        2PX         1.98889
  84        2PY         1.99257
  85        2PZ         1.99083
  86        3S          1.44414
  87        3PX         1.00739
  88        3PY         1.36087
  89        3PZ         1.18317
  90        4S          0.47270
  91        4PX         0.33124
  92        4PY         0.59282
  93        4PZ         0.51974
  94        5D 0        0.00240
  95        5D+1        0.00451
  96        5D-1        0.00048
  97        5D+2        0.00623
  98        5D-2        0.00417
  99 6   Cl 1S          1.99965
 100        2S          1.99745
 101        2PX         1.99257
 102        2PY         1.98889
 103        2PZ         1.99083
 104        3S          1.44414
 105        3PX         1.36087
 106        3PY         1.00739
 107        3PZ         1.18317
 108        4S          0.47270
 109        4PX         0.59282
 110        4PY         0.33124
 111        4PZ         0.51974
 112        5D 0        0.00240
 113        5D+1        0.00048
 114        5D-1        0.00451
 115        5D+2        0.00623
 116        5D-2        0.00417
 117 7   Cl 1S          1.99965
 118        2S          1.99745
 119        2PX         1.99257
 120        2PY         1.98889
 121        2PZ         1.99083
 122        3S          1.44410
 123        3PX         1.36086
 124        3PY         1.00747
 125        3PZ         1.18324
 126        4S          0.47265
 127        4PX         0.59278
 128        4PY         0.33115
 129        4PZ         0.51977
 130        5D 0        0.00240
 131        5D+1        0.00048
 132        5D-1        0.00451
 133        5D+2        0.00624
 134        5D-2        0.00418
 135 8   Cl 1S          1.99965
 136        2S          1.99745
 137        2PX         1.98889
 138        2PY         1.99257
 139        2PZ         1.99083
 140        3S          1.44410
 141        3PX         1.00747
 142        3PY         1.36086
 143        3PZ         1.18324
 144        4S          0.47265
 145        4PX         0.33115
 146        4PY         0.59278
 147        4PZ         0.51977
 148        5D 0        0.00240
 149        5D+1        0.00451
 150        5D-1        0.00048
 151        5D+2        0.00624
 152        5D-2        0.00418
 153 9   Cl 1S          1.99965
 154        2S          1.99745
 155        2PX         1.98889
 156        2PY         1.99257
 157        2PZ         1.99083
 158        3S          1.44410
 159        3PX         1.00747
 160        3PY         1.36086
 161        3PZ         1.18324
 162        4S          0.47265
 163        4PX         0.33115
 164        4PY         0.59278
 165        4PZ         0.51977
 166        5D 0        0.00240
 167        5D+1        0.00451
 168        5D-1        0.00048
 169        5D+2        0.00624
 170        5D-2        0.00418
 171 10  Cl 1S          1.99965
 172        2S          1.99745
 173        2PX         1.99257
 174        2PY         1.98889
 175        2PZ         1.99083
 176        3S          1.44410
 177        3PX         1.36086
 178        3PY         1.00747
 179        3PZ         1.18324
 180        4S          0.47265
 181        4PX         0.59278
 182        4PY         0.33115
 183        4PZ         0.51977
 184        5D 0        0.00240
 185        5D+1        0.00048
 186        5D-1        0.00451
 187        5D+2        0.00624
 188        5D-2        0.00418
          Condensed to atoms (all electrons):
              1          2          3          4          5          6
     1  Ir  16.508354  -0.036423  -0.012877  -0.012877  -0.012877  -0.012877
     2  Ir  -0.036423  16.506336   0.246009   0.246009   0.246009   0.246009
     3  Cl  -0.012877   0.246009  16.754371  -0.049744  -0.049744  -0.002870
     4  Cl  -0.012877   0.246009  -0.049744  16.754371  -0.002870  -0.049744
     5  Cl  -0.012877   0.246009  -0.049744  -0.002870  16.754371  -0.049744
     6  Cl  -0.012877   0.246009  -0.002870  -0.049744  -0.049744  16.754371
     7  Cl   0.245929  -0.012991   0.013199   0.000437   0.000437   0.000032
     8  Cl   0.245929  -0.012991   0.000437   0.013199   0.000032   0.000437
     9  Cl   0.245929  -0.012991   0.000437   0.000032   0.013199   0.000437
    10  Cl   0.245929  -0.012991   0.000032   0.000437   0.000437   0.013199
              7          8          9         10
     1  Ir   0.245929   0.245929   0.245929   0.245929
     2  Ir  -0.012991  -0.012991  -0.012991  -0.012991
     3  Cl   0.013199   0.000437   0.000437   0.000032
     4  Cl   0.000437   0.013199   0.000032   0.000437
     5  Cl   0.000437   0.000032   0.013199   0.000437
     6  Cl   0.000032   0.000437   0.000437   0.013199
     7  Cl  16.754590  -0.049764  -0.049764  -0.002885
     8  Cl  -0.049764  16.754590  -0.002885  -0.049764
     9  Cl  -0.049764  -0.002885  16.754590  -0.049764
    10  Cl  -0.002885  -0.049764  -0.049764  16.754590
 Mulliken atomic charges:
              1
     1  Ir  -0.404140
     2  Ir  -0.401984
     3  Cl   0.100752
     4  Cl   0.100752
     5  Cl   0.100752
     6  Cl   0.100752
     7  Cl   0.100779
     8  Cl   0.100779
     9  Cl   0.100779
    10  Cl   0.100779
 Sum of Mulliken atomic charges =   0.00000
 Mulliken charges with hydrogens summed into heavy atoms:
              1
     1  Ir  -0.404140
     2  Ir  -0.401984
     3  Cl   0.100752
     4  Cl   0.100752
     5  Cl   0.100752
     6  Cl   0.100752
     7  Cl   0.100779
     8  Cl   0.100779
     9  Cl   0.100779
    10  Cl   0.100779
 Sum of Mulliken charges with hydrogens summed into heavy atoms =   0.00000
 Electronic spatial extent (au):  <R**2>=           4222.3041
 Charge=              0.0000 electrons
 Dipole moment (field-independent basis, Debye):
    X=              0.0000    Y=              0.0000    Z=             -0.0021  Tot=              0.0021
 Quadrupole moment (field-independent basis, Debye-Ang):
   XX=           -151.7981   YY=           -151.7981   ZZ=           -148.1156
   XY=              0.0000   XZ=              0.0000   YZ=              0.0000
 Traceless Quadrupole moment (field-independent basis, Debye-Ang):
   XX=             -1.2275   YY=             -1.2275   ZZ=              2.4550
   XY=              0.0000   XZ=              0.0000   YZ=              0.0000
 Octapole moment (field-independent basis, Debye-Ang**2):
  XXX=              0.0000  YYY=              0.0000  ZZZ=              0.0726  XYY=              0.0000
  XXY=              0.0000  XXZ=              0.0049  XZZ=              0.0000  YZZ=              0.0000
  YYZ=              0.0049  XYZ=              0.0000
 Hexadecapole moment (field-independent basis, Debye-Ang**3):
 XXXX=          -1581.4029 YYYY=          -1581.4029 ZZZZ=          -2180.1235 XXXY=              0.0000
 XXXZ=              0.0000 YYYX=              0.0000 YYYZ=              0.0000 ZZZX=              0.0000
 ZZZY=              0.0000 XXYY=           -569.0480 XXZZ=           -641.2907 YYZZ=           -641.2907
 XXYZ=              0.0000 YYXZ=              0.0000 ZZXY=              0.0000
 N-N= 2.036927314452D+03 E-N=-1.324851294450D+04  KE= 3.740230016001D+03
 Symmetry A1   KE= 1.677300464712D+03
 Symmetry A2   KE= 1.926830175634D+02
 Symmetry B1   KE= 9.351232668632D+02
 Symmetry B2   KE= 9.351232668632D+02
 Orbital energies and kinetic energies (alpha):
                                 1                 2
   1         (E)--O         -101.574622        137.059130
   2         (E)--O         -101.574622        137.059130
   3         (B2)--O        -101.574621        137.059151
   4         (A1)--O        -101.574617        137.060050
   5         (E)--O         -101.574569        137.060979
   6         (E)--O         -101.574569        137.060979
   7         (A1)--O        -101.574566        137.061138
   8         (B2)--O        -101.574560        137.062594
   9         (B2)--O          -9.505320         21.701021
  10         (E)--O           -9.505318         21.701497
  11         (E)--O           -9.505318         21.701496
  12         (A1)--O          -9.505292         21.705273
  13         (E)--O           -9.505238         21.709632
  14         (E)--O           -9.505238         21.709632
  15         (A1)--O          -9.505227         21.710884
  16         (B2)--O          -9.505206         21.714174
  17         (B2)--O          -7.267036         20.524720
  18         (A1)--O          -7.267000         20.534899
  19         (E)--O           -7.266991         20.535400
  20         (E)--O           -7.266991         20.535400
  21         (A1)--O          -7.266958         20.535419
  22         (E)--O           -7.266950         20.535602
  23         (E)--O           -7.266950         20.535602
  24         (B2)--O          -7.266947         20.536811
  25         (B2)--O          -7.261475         20.542130
  26         (A1)--O          -7.261468         20.543973
  27         (E)--O           -7.261465         20.543554
  28         (E)--O           -7.261465         20.543554
  29         (B2)--O          -7.261427         20.546093
  30         (A1)--O          -7.261426         20.545620
  31         (E)--O           -7.261412         20.548774
  32         (E)--O           -7.261412         20.548773
  33         (E)--O           -7.257257         20.548404
  34         (E)--O           -7.257257         20.548404
  35         (A2)--O          -7.257255         20.547545
  36         (B1)--O          -7.257234         20.553344
  37         (E)--O           -7.257215         20.549508
  38         (E)--O           -7.257215         20.549508
  39         (A2)--O          -7.257211         20.549164
  40         (B1)--O          -7.257190         20.554786
  41         (A1)--O          -3.888192          1.543220
  42         (A1)--O          -3.882897          1.572703
  43         (A1)--O          -2.327320          2.113535
  44         (E)--O           -2.282833          2.178750
  45         (E)--O           -2.282833          2.178750
  46         (A1)--O          -2.276904          2.280170
  47         (E)--O           -2.276857          2.203642
  48         (E)--O           -2.276857          2.203642
  49         (A1)--O          -0.880233          2.824952
  50         (A1)--O          -0.870248          2.949393
  51         (B2)--O          -0.853815          3.119241
  52         (E)--O           -0.851241          3.127977
  53         (E)--O           -0.851241          3.127977
  54         (B2)--O          -0.845335          3.214810
  55         (E)--O           -0.844141          3.205568
  56         (E)--O           -0.844141          3.205568
  57         (A1)--O          -0.543142          2.014323
  58         (E)--O           -0.522507          1.886119
  59         (E)--O           -0.522507          1.886119
  60         (B2)--O          -0.508278          2.254964
  61         (A1)--O          -0.502356          1.870496
  62         (B1)--O          -0.494798          1.834095
  63         (B2)--O          -0.491316          2.326533
  64         (A1)--O          -0.485323          2.167457
  65         (B1)--O          -0.472054          1.958120
  66         (E)--O           -0.443637          2.243315
  67         (E)--O           -0.443637          2.243315
  68         (E)--O           -0.412938          2.159047
  69         (E)--O           -0.412938          2.159047
  70         (A1)--O          -0.409556          1.937350
  71         (A1)--O          -0.386702          2.091869
  72         (B2)--O          -0.369852          2.324936
  73         (E)--O           -0.361319          2.354278
  74         (E)--O           -0.361319          2.354278
  75         (E)--O           -0.359579          2.436210
  76         (E)--O           -0.359579          2.436210
  77         (E)--O           -0.347326          2.512193
  78         (E)--O           -0.347326          2.512193
  79         (E)--O           -0.338806          2.462056
  80         (E)--O           -0.338806          2.462056
  81         (B1)--O          -0.331682          2.440076
  82         (B2)--O          -0.328980          2.660330
  83         (A2)--O          -0.326150          2.648460
  84         (A2)--O          -0.320300          2.718859
  85         (B1)--O          -0.319517          2.537060
  86         (E)--V           -0.242357          2.783037
  87         (E)--V           -0.242357          2.783037
  88         (A1)--V          -0.228515          2.623356
  89         (B2)--V          -0.162338          2.964281
  90         (B2)--V          -0.150123          3.038099
  91         (A1)--V          -0.099520          2.011359
  92         (A1)--V           0.008787          0.921875
  93         (A1)--V           0.020114          0.922813
  94         (E)--V            0.036447          0.604990
  95         (E)--V            0.036447          0.604990
  96         (E)--V            0.056565          0.439861
  97         (E)--V            0.056565          0.439861
  98         (A1)--V           0.062711          1.495104
  99         (A1)--V           0.075313          0.694354
 100         (E)--V            0.147099          1.565608
 101         (E)--V            0.147099          1.565608
 102         (E)--V            0.258540          1.375517
 103         (E)--V            0.258540          1.375517
 104         (A1)--V           0.286840          1.778069
 105         (A1)--V           0.295420          2.400228
 106         (B1)--V           0.322707          1.724250
 107         (B2)--V           0.323513          2.417121
 108         (B2)--V           0.333329          2.066031
 109         (B1)--V           0.356305          1.686666
 110         (E)--V            0.357057          1.972096
 111         (E)--V            0.357057          1.972096
 112         (B1)--V           0.369789          2.729390
 113         (A1)--V           0.391412          1.876908
 114         (B2)--V           0.395807          2.302243
 115         (E)--V            0.403695          2.836979
 116         (E)--V            0.403695          2.836979
 117         (E)--V            0.418955          1.715574
 118         (E)--V            0.418955          1.715574
 119         (A1)--V           0.435035          2.541951
 120         (B1)--V           0.438976          2.893843
 121         (E)--V            0.447104          2.869829
 122         (E)--V            0.447104          2.869829
 123         (E)--V            0.466978          2.533430
 124         (E)--V            0.466978          2.533430
 125         (A1)--V           0.479919          2.872321
 126         (A1)--V           0.495153          2.642065
 127         (E)--V            0.500441          2.680853
 128         (E)--V            0.500441          2.680853
 129         (A2)--V           0.510866          2.594820
 130         (B2)--V           0.533233          2.585822
 131         (B2)--V           0.535839          2.549675
 132         (E)--V            0.551242          2.659409
 133         (E)--V            0.551242          2.659409
 134         (E)--V            0.563777          2.617756
 135         (E)--V            0.563777          2.617756
 136         (A2)--V           0.567337          2.645798
 137         (E)--V            0.572683          2.791443
 138         (E)--V            0.572683          2.791443
 139         (A1)--V           0.574320          2.714998
 140         (B2)--V           0.593311          2.794645
 141         (B2)--V           0.613530          2.670541
 142         (A1)--V           0.657339          2.688915
 143         (E)--V            0.739089          2.847758
 144         (E)--V            0.739089          2.847758
 145         (B2)--V           0.814438          2.645169
 146         (A2)--V           0.824760          2.629529
 147         (B2)--V           0.824786          2.655577
 148         (B1)--V           0.825816          2.624914
 149         (E)--V            0.825953          2.654055
 150         (E)--V            0.825953          2.654055
 151         (A2)--V           0.828149          2.625875
 152         (E)--V            0.830438          2.642146
 153         (E)--V            0.830438          2.642146
 154         (B1)--V           0.830561          2.632078
 155         (E)--V            0.832980          2.650984
 156         (E)--V            0.832980          2.650984
 157         (A1)--V           0.843282          2.714461
 158         (A1)--V           0.854199          2.682575
 159         (E)--V            0.864524          2.728730
 160         (E)--V            0.864524          2.728730
 161         (A1)--V           0.864748          2.798381
 162         (B2)--V           0.867064          2.842652
 163         (A2)--V           0.869747          2.759467
 164         (E)--V            0.877296          2.790913
 165         (E)--V            0.877296          2.790913
 166         (A2)--V           0.889680          2.841346
 167         (E)--V            0.897328          3.139935
 168         (E)--V            0.897328          3.139935
 169         (A1)--V           0.924486          2.780505
 170         (B2)--V           0.931745          3.033781
 171         (E)--V            0.969287          2.876686
 172         (E)--V            0.969287          2.876686
 173         (B1)--V           1.027588          2.752687
 174         (B2)--V           1.044470          3.916419
 175         (A1)--V           1.091939          3.024926
 176         (A1)--V           1.134373          2.752792
 177         (B2)--V           1.138188          2.798558
 178         (E)--V            1.140272          2.778745
 179         (E)--V            1.140272          2.778745
 180         (A1)--V           1.143973          2.938843
 181         (E)--V            1.147035          2.841345
 182         (E)--V            1.147035          2.841345
 183         (B1)--V           1.208059          2.954222
 184         (E)--V            1.265118          3.111600
 185         (E)--V            1.265118          3.111600
 186         (B2)--V           1.531609          3.718446
 187         (A1)--V           5.158810          2.301779
 188         (A1)--V          11.174576          3.680248
 Total kinetic energy from orbitals= 3.740230016001D+03
 No NMR shielding tensors so no spin-rotation constants.
 Leave Link  601 at Tue May  5 13:03:49 2015, MaxMem= 1073741824 cpu:       2.6
 (Enter /usr/g09/l9999.exe)
 1\1\GINC-LSQC07\SP\RB3LYP\GenECP\Cl8Ir2\LITAO\05-May-2015\0\\#p b3lyp/
 genecp pop=full\\Title Card Required\\0,1\Ir,0,0.,0.,0.\Ir,0,0.,0.,2.2
 4015797\Cl,0,1.57,1.57,2.782\Cl,0,1.57,-1.57,2.782\Cl,0,-1.57,1.57,2.7
 82\Cl,0,-1.57,-1.57,2.782\Cl,0,1.57,1.57,-0.54\Cl,0,1.57,-1.57,-0.54\C
 l,0,-1.57,1.57,-0.54\Cl,0,-1.57,-1.57,-0.54\\Version=EM64L-G09RevA.01\
 State=1-A1\HF=-3891.0153252\RMSD=3.775e-09\Dipole=0.,0.,0.0008428\Quad
 rupole=-0.9126344,-0.9126344,1.8252688,0.,0.,0.\PG=C04V [C4(Ir1Ir1),2S
 GV(Cl4)]\\@


 ...THE PHYSICISTS HAVE MADE THEIR UNIVERSE, AND IF YOU DO NOT LIKE
 IT, YOU MUST MAKE YOUR OWN.
                               -- E. R. HARRISON IN "COSMOLOGY" (1980)
 Job cpu time:  0 days  0 hours  1 minutes 43.8 seconds.
 File lengths (MBytes):  RWF=     19 Int=      0 D2E=      0 Chk=      2 Scr=      1
 Normal termination of Gaussian 09 at Tue May  5 13:03:49 2015.
