 Entering Gaussian System, Link 0=g09
 Input=ir2cl8-45.gjf
 Output=ir2cl8-45.log
 Initial command:
 /usr/g09/l1.exe /scratch/litao/gaussian/Gau-4209.inp -scrdir=/scratch/litao/gaussian/
 Entering Link 1 = /usr/g09/l1.exe PID=      4210.
  
 Copyright (c) 1988,1990,1992,1993,1995,1998,2003,2009, Gaussian, Inc.
                  All Rights Reserved.
  
 This is part of the Gaussian(R) 09 program.  It is based on
 the Gaussian(R) 03 system (copyright 2003, Gaussian, Inc.),
 the Gaussian(R) 98 system (copyright 1998, Gaussian, Inc.),
 the Gaussian(R) 94 system (copyright 1995, Gaussian, Inc.),
 the Gaussian 92(TM) system (copyright 1992, Gaussian, Inc.),
 the Gaussian 90(TM) system (copyright 1990, Gaussian, Inc.),
 the Gaussian 88(TM) system (copyright 1988, Gaussian, Inc.),
 the Gaussian 86(TM) system (copyright 1986, Carnegie Mellon
 University), and the Gaussian 82(TM) system (copyright 1983,
 Carnegie Mellon University). Gaussian is a federally registered
 trademark of Gaussian, Inc.
  
 This software contains proprietary and confidential information,
 including trade secrets, belonging to Gaussian, Inc.
  
 This software is provided under written license and may be
 used, copied, transmitted, or stored only in accord with that
 written license.
  
 The following legend is applicable only to US Government
 contracts under FAR:
  
                    RESTRICTED RIGHTS LEGEND
  
 Use, reproduction and disclosure by the US Government is
 subject to restrictions as set forth in subparagraphs (a)
 and (c) of the Commercial Computer Software - Restricted
 Rights clause in FAR 52.227-19.
  
 Gaussian, Inc.
 340 Quinnipiac St., Bldg. 40, Wallingford CT 06492
  
  
 ---------------------------------------------------------------
 Warning -- This program may not be used in any manner that
 competes with the business of Gaussian, Inc. or will provide
 assistance to any competitor of Gaussian, Inc.  The licensee
 of this program is prohibited from giving any competitor of
 Gaussian, Inc. access to this program.  By using this program,
 the user acknowledges that Gaussian, Inc. is engaged in the
 business of creating and licensing software in the field of
 computational chemistry and represents and warrants to the
 licensee that it is not a competitor of Gaussian, Inc. and that
 it will not use this program in any manner prohibited above.
 ---------------------------------------------------------------
  

 Cite this work as:
 Gaussian 09, Revision A.01,
 M. J. Frisch, G. W. Trucks, H. B. Schlegel, G. E. Scuseria, 
 M. A. Robb, J. R. Cheeseman, G. Scalmani, V. Barone, B. Mennucci, 
 G. A. Petersson, H. Nakatsuji, M. Caricato, X. Li, H. P. Hratchian, 
 A. F. Izmaylov, J. Bloino, G. Zheng, J. L. Sonnenberg, M. Hada, 
 M. Ehara, K. Toyota, R. Fukuda, J. Hasegawa, M. Ishida, T. Nakajima, 
 Y. Honda, O. Kitao, H. Nakai, T. Vreven, J. A. Montgomery, Jr., 
 J. E. Peralta, F. Ogliaro, M. Bearpark, J. J. Heyd, E. Brothers, 
 K. N. Kudin, V. N. Staroverov, R. Kobayashi, J. Normand, 
 K. Raghavachari, A. Rendell, J. C. Burant, S. S. Iyengar, J. Tomasi, 
 M. Cossi, N. Rega, J. M. Millam, M. Klene, J. E. Knox, J. B. Cross, 
 V. Bakken, C. Adamo, J. Jaramillo, R. Gomperts, R. E. Stratmann, 
 O. Yazyev, A. J. Austin, R. Cammi, C. Pomelli, J. W. Ochterski, 
 R. L. Martin, K. Morokuma, V. G. Zakrzewski, G. A. Voth, 
 P. Salvador, J. J. Dannenberg, S. Dapprich, A. D. Daniels, 
 O. Farkas, J. B. Foresman, J. V. Ortiz, J. Cioslowski, 
 and D. J. Fox, Gaussian, Inc., Wallingford CT, 2009.
 
 ******************************************
 Gaussian 09:  EM64L-G09RevA.01  8-May-2009
                 5-May-2015 
 ******************************************
 %nprocshared=8
 Will use up to    8 processors via shared memory.
 %mem=8GB
 %chk=ir2cl8-45.chk
 ------------------------
 #p b3lyp/genecp pop=full
 ------------------------
 1/38=1/1;
 2/12=2,17=6,18=5,40=1/2;
 3/5=7,11=2,16=1,17=8,25=1,30=1,74=-5/1,2,3;
 4//1;
 5/5=2,38=5/2;
 6/7=3,28=1/1;
 99/5=1,9=1/99;
 Leave Link    1 at Tue May  5 13:03:49 2015, MaxMem= 1073741824 cpu:       0.2
 (Enter /usr/g09/l101.exe)
 -------------------
 Title Card Required
 -------------------
 Symbolic Z-matrix:
 Charge =  0 Multiplicity = 1
 Ir                    0.        0.        0. 
 Ir                    0.        0.        2.24016 
 Cl                    0.84968   2.0513    2.782 
 Cl                    2.0513   -0.84968   2.782 
 Cl                   -2.0513    0.84968   2.782 
 Cl                   -0.84968  -2.0513    2.782 
 Cl                    2.0513    0.84968  -0.54 
 Cl                    0.84968  -2.0513   -0.54 
 Cl                   -0.84968   2.0513   -0.54 
 Cl                   -2.0513   -0.84968  -0.54 
 
 NAtoms=     10 NQM=     10 NQMF=      0 NMic=      0 NMicF=      0 NTot=     10.
                    Isotopes and Nuclear Properties:
 (Nuclear quadrupole moments (NQMom) in fm**2, nuclear magnetic moments (NMagM)
  in nuclear magnetons)

  Atom         1           2           3           4           5           6           7           8           9          10
 IAtWgt=         193         193          35          35          35          35          35          35          35          35
 AtmWgt= 192.9633000 192.9633000  34.9688527  34.9688527  34.9688527  34.9688527  34.9688527  34.9688527  34.9688527  34.9688527
 NucSpn=           3           3           3           3           3           3           3           3           3           3
 AtZEff=   0.0000000   0.0000000   0.0000000   0.0000000   0.0000000   0.0000000   0.0000000   0.0000000   0.0000000   0.0000000
 NQMom=   75.1000000  75.1000000  -8.1650000  -8.1650000  -8.1650000  -8.1650000  -8.1650000  -8.1650000  -8.1650000  -8.1650000
 NMagM=    0.1592000   0.1592000   0.8218740   0.8218740   0.8218740   0.8218740   0.8218740   0.8218740   0.8218740   0.8218740
 Leave Link  101 at Tue May  5 13:03:49 2015, MaxMem= 1073741824 cpu:       0.1
 (Enter /usr/g09/l202.exe)
                          Input orientation:                          
 ---------------------------------------------------------------------
 Center     Atomic      Atomic             Coordinates (Angstroms)
 Number     Number       Type             X           Y           Z
 ---------------------------------------------------------------------
      1         77           0        0.000000    0.000000    0.000000
      2         77           0        0.000000    0.000000    2.240158
      3         17           0        0.849678    2.051304    2.782000
      4         17           0        2.051304   -0.849678    2.782000
      5         17           0       -2.051304    0.849678    2.782000
      6         17           0       -0.849678   -2.051304    2.782000
      7         17           0        2.051304    0.849678   -0.540000
      8         17           0        0.849678   -2.051304   -0.540000
      9         17           0       -0.849678    2.051304   -0.540000
     10         17           0       -2.051304   -0.849678   -0.540000
 ---------------------------------------------------------------------
                    Distance matrix (angstroms):
                    1          2          3          4          5
     1  Ir   0.000000
     2  Ir   2.240158   0.000000
     3  Cl   3.559399   2.285474   0.000000
     4  Cl   3.559399   2.285474   3.140000   0.000000
     5  Cl   3.559399   2.285474   3.140000   4.440631   0.000000
     6  Cl   3.559399   2.285474   4.440631   3.140000   3.140000
     7  Cl   2.285038   3.557960   3.731420   3.731420   5.278927
     8  Cl   2.285038   3.557960   5.278927   3.731420   5.278927
     9  Cl   2.285038   3.557960   3.731420   5.278927   3.731420
    10  Cl   2.285038   3.557960   5.278927   5.278927   3.731420
                    6          7          8          9         10
     6  Cl   0.000000
     7  Cl   5.278927   0.000000
     8  Cl   3.731420   3.140000   0.000000
     9  Cl   5.278927   3.140000   4.440631   0.000000
    10  Cl   3.731420   4.440631   3.140000   3.140000   0.000000
 Stoichiometry    Cl8Ir2
 Framework group  C4V[C4(IrIr),2SGV(Cl2),2SGD(Cl2)]
 Deg. of freedom     5
 Full point group                 C4V     NOp   8
 Largest Abelian subgroup         C2V     NOp   4
 Largest concise Abelian subgroup C2V     NOp   4
                         Standard orientation:                         
 ---------------------------------------------------------------------
 Center     Atomic      Atomic             Coordinates (Angstroms)
 Number     Number       Type             X           Y           Z
 ---------------------------------------------------------------------
      1         77           0        0.000000    0.000000    1.120511
      2         77           0        0.000000    0.000000   -1.119647
      3         17           0        1.570000    1.570000   -1.661489
      4         17           0       -1.570000    1.570000   -1.661489
      5         17           0        1.570000   -1.570000   -1.661489
      6         17           0       -1.570000   -1.570000   -1.661489
      7         17           0        0.000000    2.220315    1.660511
      8         17           0       -2.220315    0.000000    1.660511
      9         17           0        2.220315    0.000000    1.660511
     10         17           0        0.000000   -2.220315    1.660511
 ---------------------------------------------------------------------
 Rotational constants (GHZ):      0.3664515      0.2597624      0.2597624
 Leave Link  202 at Tue May  5 13:03:49 2015, MaxMem= 1073741824 cpu:       0.0
 (Enter /usr/g09/l301.exe)
 General basis read from cards:  (5D, 7F)
 Centers:   3  4  5  6  7  8  9 10
 6-31g**
 ****
 Centers:   1  2
 LanL2DZ
 ****
 Ernie: Thresh=  0.10000D-02 Tol=  0.10000D-05 Strict=F.
 Ernie:  2 primitive shells out of 170 were deleted.
 ======================================================================================================
                                       Pseudopotential Parameters
 ======================================================================================================
  Center     Atomic      Valence      Angular      Power
  Number     Number     Electrons     Momentum     of R      Exponent        Coefficient   SO-Coeffient
 ======================================================================================================
    1         77           17
                                      G and up 
                                                     1      823.5880147       -0.15780140    0.00000000
                                                     2      364.6613336    -1517.52704460    0.00000000
                                                     2       55.7082801     -316.53065290    0.00000000
                                                     2       12.0464544      -91.88809410    0.00000000
                                                     2        3.5120610       -9.22417730    0.00000000
                                      S - G
                                                     0      188.0490770        3.15780140    0.00000000
                                                     1      340.4194712       26.83225770    0.00000000
                                                     2      128.2373673      800.42500070    0.00000000
                                                     2       33.8644961      369.40506830    0.00000000
                                                     2        4.7560005      242.41718990    0.00000000
                                                     2        3.9649974     -118.21732820    0.00000000
                                      P - G
                                                     0      289.7291139        2.15780140    0.00000000
                                                     1       87.4633789       61.96786100    0.00000000
                                                     2       30.4363766      269.05819860    0.00000000
                                                     2        4.0553412      231.16547930    0.00000000
                                                     2        3.5525341     -133.69526670    0.00000000
                                      D - G
                                                     0      136.4017106        3.15780140    0.00000000
                                                     1       95.0776925       45.93498030    0.00000000
                                                     2       49.2258410      359.03446680    0.00000000
                                                     2       15.0874145      176.47401190    0.00000000
                                                     2        4.0405764       54.51552860    0.00000000
                                      F - G
                                                     0      127.3507908        3.95461970    0.00000000
                                                     1       66.2364374       52.97736550    0.00000000
                                                     2       34.4299229      274.86433830    0.00000000
                                                     2       10.1995721      137.20473380    0.00000000
                                                     2        2.5409702       14.86333050    0.00000000
    2         77           17
                                      G and up 
                                                     1      823.5880147       -0.15780140    0.00000000
                                                     2      364.6613336    -1517.52704460    0.00000000
                                                     2       55.7082801     -316.53065290    0.00000000
                                                     2       12.0464544      -91.88809410    0.00000000
                                                     2        3.5120610       -9.22417730    0.00000000
                                      S - G
                                                     0      188.0490770        3.15780140    0.00000000
                                                     1      340.4194712       26.83225770    0.00000000
                                                     2      128.2373673      800.42500070    0.00000000
                                                     2       33.8644961      369.40506830    0.00000000
                                                     2        4.7560005      242.41718990    0.00000000
                                                     2        3.9649974     -118.21732820    0.00000000
                                      P - G
                                                     0      289.7291139        2.15780140    0.00000000
                                                     1       87.4633789       61.96786100    0.00000000
                                                     2       30.4363766      269.05819860    0.00000000
                                                     2        4.0553412      231.16547930    0.00000000
                                                     2        3.5525341     -133.69526670    0.00000000
                                      D - G
                                                     0      136.4017106        3.15780140    0.00000000
                                                     1       95.0776925       45.93498030    0.00000000
                                                     2       49.2258410      359.03446680    0.00000000
                                                     2       15.0874145      176.47401190    0.00000000
                                                     2        4.0405764       54.51552860    0.00000000
                                      F - G
                                                     0      127.3507908        3.95461970    0.00000000
                                                     1       66.2364374       52.97736550    0.00000000
                                                     2       34.4299229      274.86433830    0.00000000
                                                     2       10.1995721      137.20473380    0.00000000
                                                     2        2.5409702       14.86333050    0.00000000
    3         17
                                   No pseudopotential on this center.
    4         17
                                   No pseudopotential on this center.
    5         17
                                   No pseudopotential on this center.
    6         17
                                   No pseudopotential on this center.
    7         17
                                   No pseudopotential on this center.
    8         17
                                   No pseudopotential on this center.
    9         17
                                   No pseudopotential on this center.
   10         17
                                   No pseudopotential on this center.
 ======================================================================================================
 There are    64 symmetry adapted basis functions of A1  symmetry.
 There are    32 symmetry adapted basis functions of A2  symmetry.
 There are    46 symmetry adapted basis functions of B1  symmetry.
 There are    46 symmetry adapted basis functions of B2  symmetry.
 Integral buffers will be    131072 words long.
 Raffenetti 2 integral format.
 Two-electron integral symmetry is turned on.
   188 basis functions,   502 primitive gaussians,   200 cartesian basis functions
    85 alpha electrons       85 beta electrons
       nuclear repulsion energy      2034.4698533652 Hartrees.
 IExCor=  402 DFT=T Ex+Corr=B3LYP ExCW=0 ScaHFX=  0.200000
 ScaDFX=  0.800000  0.720000  1.000000  0.810000 ScalE2=  1.000000  1.000000
 IRadAn=      0 IRanWt=     -1 IRanGd=            0 ICorTp=0
 NAtoms=   10 NActive=   10 NUniq=    4 SFac= 3.00D+00 NAtFMM=   80 NAOKFM=F Big=F
 Leave Link  301 at Tue May  5 13:03:49 2015, MaxMem= 1073741824 cpu:       0.2
 (Enter /usr/g09/l302.exe)
 NPDir=0 NMtPBC=     1 NCelOv=     1 NCel=       1 NClECP=     1 NCelD=      1
         NCelK=      1 NCelE2=     1 NClLst=     1 CellRange=     0.0.
 One-electron integrals computed using PRISM.
 One-electron integral symmetry used in STVInt
   8 Symmetry operations used in ECPInt.
 ECPInt:  NShTT=    1596 NPrTT=   14482 LenC2=    1485 LenP2D=    8742.
 LDataN:  DoStor=T MaxTD1= 6 Len=  172
 NBasis=   188 RedAO= T  NBF=    64    32    46    46
 NBsUse=   188 1.00D-06 NBFU=    64    32    46    46
 Precomputing XC quadrature grid using
 IXCGrd= 2 IRadAn=           0 IRanWt=          -1 IRanGd=           0 AccXCQ= 1.00D-10.
 Defaulting to unpruned grid for atomic number  77.
 NRdTot=     620 NPtTot=       99784 NUsed=      104267 NTot=      104299
 NSgBfM=   196   196   196   196   196 NAtAll=    10    10.
 Leave Link  302 at Tue May  5 13:03:49 2015, MaxMem= 1073741824 cpu:       2.4
 (Enter /usr/g09/l303.exe)
 DipDrv:  MaxL=1.
 Leave Link  303 at Tue May  5 13:03:49 2015, MaxMem= 1073741824 cpu:       0.1
 (Enter /usr/g09/l401.exe)
 Harris functional with IExCor=  402 diagonalized for initial guess.
 ExpMin= 2.90D-02 ExpMax= 2.52D+04 ExpMxC= 3.78D+03 IAcc=3 IRadAn=         0 AccDes= 0.00D+00
 HarFok:  IExCor=  402 AccDes= 0.00D+00 IRadAn=         0 IDoV= 1
 ScaDFX=  1.000000  1.000000  1.000000  1.000000
 Defaulting to unpruned grid for atomic number  77.
 Defaulting to unpruned grid for atomic number  77.
 Defaulting to unpruned grid for atomic number  77.
 Defaulting to unpruned grid for atomic number  77.
 Defaulting to unpruned grid for atomic number  77.
 Defaulting to unpruned grid for atomic number  77.
 Defaulting to unpruned grid for atomic number  77.
 Defaulting to unpruned grid for atomic number  77.
 FoFCou: FMM=F IPFlag=           0 FMFlag=      100000 FMFlg1=           0
         NFxFlg=           0 DoJE=T BraDBF=F KetDBF=T FulRan=T
         Omega=  0.000000  0.000000  1.000000  0.000000  0.000000 ICntrl=     500 IOpCl=  0
         NMat0=    1 NMatS0=    1 NMatT0=    0 NMatD0=    1 NMtDS0=    0 NMtDT0=    0
         I1Cent=           4 NGrid=           0.
 Petite list used in FoFCou.
 Harris En= -3934.40500755713    
 Initial guess orbital symmetries:
       Occupied  (E) (E) (A1) (A1) (E) (E) (B1) (B2) (E) (E) (A1)
                 (E) (E) (A1) (B2) (B1) (B2) (B1) (A1) (E) (E)
                 (A1) (E) (E) (A2) (E) (E) (A1) (E) (E) (B1) (B2)
                 (A2) (E) (E) (A1) (B1) (B2) (E) (E) (A1) (A1)
                 (A1) (E) (E) (E) (E) (A1) (A1) (B2) (B1) (A1)
                 (E) (E) (E) (E) (A1) (B1) (B2) (A1) (B2) (B1)
                 (A1) (E) (E) (E) (E) (E) (E) (A1) (B2) (B1) (E)
                 (E) (E) (E) (A2) (E) (E) (A2) (E) (E) (A1) (A1)
                 (B1)
       Virtual   (B2) (E) (E) (E) (E) (A1) (A1) (A1) (B1) (B2)
                 (E) (E) (A1) (E) (E) (A1) (E) (E) (B1) (B2) (E)
                 (E) (A1) (B1) (B2) (E) (E) (A1) (E) (E) (A1) (A1)
                 (A2) (B1) (E) (E) (B2) (A1) (A2) (E) (E) (E) (E)
                 (B2) (B1) (A1) (E) (E) (E) (E) (E) (E) (A1) (B2)
                 (B1) (B1) (B2) (E) (E) (A2) (E) (E) (A1) (A2)
                 (E) (E) (B2) (B1) (B2) (B1) (E) (E) (E) (E) (A1)
                 (A2) (A2) (E) (E) (A1) (E) (E) (A1) (A1) (B1)
                 (B2) (E) (E) (E) (E) (A1) (B1) (B2) (E) (E) (E)
                 (E) (A1) (A1) (B1) (B2) (A1) (A1)
 The electronic state of the initial guess is 1-A1.
 Leave Link  401 at Tue May  5 13:03:50 2015, MaxMem= 1073741824 cpu:       1.8
 (Enter /usr/g09/l502.exe)
 Closed shell SCF:
 Requested convergence on RMS density matrix=1.00D-08 within 128 cycles.
 Requested convergence on MAX density matrix=1.00D-06.
 Requested convergence on             energy=1.00D-06.
 No special actions if energy rises.
 Using DIIS extrapolation, IDIIS=  1040.
 Integral symmetry usage will be decided dynamically.
       104164 words used for storage of precomputed grid.
 Keep R1 ints in memory in canonical form, NReq=206321594.
 IEnd=      246330 IEndB=      246330 NGot=  1073741824 MDV=   871537257
 LenX=   871537257 LenY=   871496816
 Symmetry not used in FoFDir.
 MinBra= 0 MaxBra= 2 Meth= 1.
 IRaf=       0 NMat=   1 IRICut=       1 DoRegI=T DoRafI=F ISym2E= 0 JSym2E=0.

 Cycle   1  Pass 1  IDiag  1:
 Defaulting to unpruned grid for atomic number  77.
 Defaulting to unpruned grid for atomic number  77.
 Defaulting to unpruned grid for atomic number  77.
 Defaulting to unpruned grid for atomic number  77.
 Defaulting to unpruned grid for atomic number  77.
 Defaulting to unpruned grid for atomic number  77.
 Defaulting to unpruned grid for atomic number  77.
 Defaulting to unpruned grid for atomic number  77.
 E= -3872.16230958179    
 DIIS: error= 2.99D-01 at cycle   1 NSaved=   1.
 NSaved= 1 IEnMin= 1 EnMin= -3872.16230958179     IErMin= 1 ErrMin= 2.99D-01
 ErrMax= 2.99D-01 EMaxC= 1.00D-01 BMatC= 2.50D+01 BMatP= 2.50D+01
 IDIUse=3 WtCom= 0.00D+00 WtEn= 1.00D+00
 Coeff-Com:  0.100D+01
 Coeff-En:   0.100D+01
 Coeff:      0.100D+01
 Gap=     0.843 Goal=   None    Shift=    0.000
 GapD=    0.843 DampG=2.000 DampE=0.125 DampFc=0.2500 IDamp=-1.
 Damping current iteration by 2.50D-01
 RMSDP=1.55D-01 MaxDP=5.65D+00              OVMax= 6.02D-01

 Cycle   2  Pass 1  IDiag  1:
 Density matrix breaks symmetry, PCut= 1.00D-04
 Density has only Abelian symmetry.
 E= -3880.95465950736     Delta-E=       -8.792349925569 Rises=F Damp=T
 DIIS: error= 1.67D-01 at cycle   2 NSaved=   2.
 NSaved= 2 IEnMin= 2 EnMin= -3880.95465950736     IErMin= 2 ErrMin= 1.67D-01
 ErrMax= 1.67D-01 EMaxC= 1.00D-01 BMatC= 6.48D+00 BMatP= 2.50D+01
 IDIUse=3 WtCom= 0.00D+00 WtEn= 1.00D+00
 Coeff-Com: -0.764D+00 0.176D+01
 Coeff-En:   0.000D+00 0.100D+01
 Coeff:      0.000D+00 0.100D+01
 Gap=     0.046 Goal=   None    Shift=    0.000
 RMSDP=1.02D-01 MaxDP=5.52D+00 DE=-8.79D+00 OVMax= 9.83D-01

 Cycle   3  Pass 1  IDiag  1:
 Density matrix breaks symmetry, PCut= 1.00D-04
 Density has only Abelian symmetry.
 E= -3871.62165217340     Delta-E=        9.333007333964 Rises=F Damp=F
 DIIS: error= 2.05D-01 at cycle   3 NSaved=   3.
 NSaved= 3 IEnMin= 2 EnMin= -3880.95465950736     IErMin= 2 ErrMin= 1.67D-01
 ErrMax= 2.05D-01 EMaxC= 1.00D-01 BMatC= 9.63D+00 BMatP= 6.48D+00
 IDIUse=2 WtCom= 0.00D+00 WtEn= 1.00D+00
 EnCoef did    14 forward-backward iterations
 Coeff-En:   0.257D+00 0.338D+00 0.406D+00
 Coeff:      0.257D+00 0.338D+00 0.406D+00
 Gap=    -0.494 Goal=   None    Shift=    0.000
 RMSDP=6.24D-02 MaxDP=4.10D+00 DE= 9.33D+00 OVMax= 9.79D-01

 Cycle   4  Pass 1  IDiag  1:
 Density matrix breaks symmetry, PCut= 1.00D-04
 Density has only Abelian symmetry.
 E= -3867.99498846825     Delta-E=        3.626663705151 Rises=F Damp=F
 DIIS: error= 1.77D-01 at cycle   4 NSaved=   4.
 NSaved= 4 IEnMin= 2 EnMin= -3880.95465950736     IErMin= 2 ErrMin= 1.67D-01
 ErrMax= 1.77D-01 EMaxC= 1.00D-01 BMatC= 1.03D+01 BMatP= 6.48D+00
 IDIUse=2 WtCom= 0.00D+00 WtEn= 1.00D+00
 EnCoef did   100 forward-backward iterations
 Coeff-En:   0.360D+00 0.148D-01 0.377D+00 0.249D+00
 Coeff:      0.360D+00 0.148D-01 0.377D+00 0.249D+00
 Gap=     0.332 Goal=   None    Shift=    0.000
 RMSDP=4.78D-02 MaxDP=3.92D+00 DE= 3.63D+00 OVMax= 9.83D-01

 Cycle   5  Pass 1  IDiag  1:
 Density matrix breaks symmetry, PCut= 1.00D-04
 Density has only Abelian symmetry.
 E= -3887.86798451858     Delta-E=      -19.872996050332 Rises=F Damp=F
 DIIS: error= 1.33D-01 at cycle   5 NSaved=   5.
 NSaved= 5 IEnMin= 5 EnMin= -3887.86798451858     IErMin= 5 ErrMin= 1.33D-01
 ErrMax= 1.33D-01 EMaxC= 1.00D-01 BMatC= 2.71D+00 BMatP= 6.48D+00
 IDIUse=3 WtCom= 0.00D+00 WtEn= 1.00D+00
 EnCoef did     2 forward-backward iterations
 Coeff-Com: -0.310D+00 0.679D+00 0.115D+00 0.834D-01 0.433D+00
 Coeff-En:   0.000D+00 0.000D+00 0.127D+00 0.158D+00 0.715D+00
 Coeff:      0.000D+00 0.000D+00 0.127D+00 0.158D+00 0.715D+00
 Gap=    -0.025 Goal=   None    Shift=    0.000
 RMSDP=2.00D-02 MaxDP=1.04D+00 DE=-1.99D+01 OVMax= 9.72D-01

 Cycle   6  Pass 1  IDiag  1:
 Density matrix breaks symmetry, PCut= 1.00D-04
 Density has only Abelian symmetry.
 E= -3882.57480906755     Delta-E=        5.293175451026 Rises=F Damp=F
 DIIS: error= 2.13D-01 at cycle   6 NSaved=   6.
 NSaved= 6 IEnMin= 5 EnMin= -3887.86798451858     IErMin= 5 ErrMin= 1.33D-01
 ErrMax= 2.13D-01 EMaxC= 1.00D-01 BMatC= 5.07D+00 BMatP= 2.71D+00
 IDIUse=2 WtCom= 0.00D+00 WtEn= 1.00D+00
 EnCoef did     4 forward-backward iterations
 Coeff-En:   0.000D+00 0.000D+00 0.991D-01 0.117D-01 0.599D+00 0.290D+00
 Coeff:      0.000D+00 0.000D+00 0.991D-01 0.117D-01 0.599D+00 0.290D+00
 Gap=     0.131 Goal=   None    Shift=    0.000
 RMSDP=1.91D-02 MaxDP=8.37D-01 DE= 5.29D+00 OVMax= 6.23D-01

 Cycle   7  Pass 1  IDiag  1:
 Density matrix breaks symmetry, PCut= 1.00D-04
 Density has only Abelian symmetry.
 E= -3881.95333951348     Delta-E=        0.621469554075 Rises=F Damp=F
 DIIS: error= 1.86D-01 at cycle   7 NSaved=   7.
 NSaved= 7 IEnMin= 5 EnMin= -3887.86798451858     IErMin= 5 ErrMin= 1.33D-01
 ErrMax= 1.86D-01 EMaxC= 1.00D-01 BMatC= 4.84D+00 BMatP= 2.71D+00
 IDIUse=2 WtCom= 0.00D+00 WtEn= 1.00D+00
 EnCoef did     4 forward-backward iterations
 Coeff-En:   0.000D+00 0.000D+00 0.312D-01 0.000D+00 0.581D+00 0.196D+00
 Coeff-En:   0.192D+00
 Coeff:      0.000D+00 0.000D+00 0.312D-01 0.000D+00 0.581D+00 0.196D+00
 Coeff:      0.192D+00
 Gap=    -0.117 Goal=   None    Shift=    0.000
 RMSDP=1.69D-02 MaxDP=5.48D-01 DE= 6.21D-01 OVMax= 8.93D-01

 Cycle   8  Pass 1  IDiag  1:
 Density matrix breaks symmetry, PCut= 1.00D-04
 Density has only Abelian symmetry.
 E= -3886.96279596537     Delta-E=       -5.009456451893 Rises=F Damp=F
 DIIS: error= 1.33D-01 at cycle   8 NSaved=   8.
 NSaved= 8 IEnMin= 5 EnMin= -3887.86798451858     IErMin= 5 ErrMin= 1.33D-01
 ErrMax= 1.33D-01 EMaxC= 1.00D-01 BMatC= 2.45D+00 BMatP= 2.71D+00
 IDIUse=3 WtCom= 0.00D+00 WtEn= 1.00D+00
 EnCoef did     4 forward-backward iterations
 Coeff-Com: -0.149D+00 0.321D+00-0.529D-01 0.417D-01 0.370D+00 0.145D+00
 Coeff-Com: -0.150D-01 0.339D+00
 Coeff-En:   0.000D+00 0.000D+00 0.000D+00 0.000D+00 0.482D+00 0.169D+00
 Coeff-En:   0.113D+00 0.236D+00
 Coeff:      0.000D+00 0.000D+00 0.000D+00 0.000D+00 0.482D+00 0.169D+00
 Coeff:      0.113D+00 0.236D+00
 Gap=    -0.006 Goal=   None    Shift=    0.000
 RMSDP=1.46D-02 MaxDP=5.13D-01 DE=-5.01D+00 OVMax= 9.88D-01

 Cycle   9  Pass 1  IDiag  1:
 Density matrix breaks symmetry, PCut= 1.00D-04
 Density has only Abelian symmetry.
 E= -3890.47201604824     Delta-E=       -3.509220082869 Rises=F Damp=F
 DIIS: error= 6.84D-02 at cycle   9 NSaved=   9.
 NSaved= 9 IEnMin= 9 EnMin= -3890.47201604824     IErMin= 9 ErrMin= 6.84D-02
 ErrMax= 6.84D-02 EMaxC= 1.00D-01 BMatC= 4.35D-01 BMatP= 2.45D+00
 IDIUse=3 WtCom= 3.16D-01 WtEn= 6.84D-01
 EnCoef did     2 forward-backward iterations
 Coeff-Com: -0.375D-01 0.705D-01-0.814D-02-0.113D-01 0.217D+00-0.748D-01
 Coeff-Com:  0.277D-02 0.148D+00 0.693D+00
 Coeff-En:   0.000D+00 0.000D+00 0.000D+00 0.000D+00 0.204D+00 0.000D+00
 Coeff-En:   0.000D+00 0.121D+00 0.675D+00
 Coeff:     -0.118D-01 0.222D-01-0.257D-02-0.358D-02 0.208D+00-0.236D-01
 Coeff:      0.875D-03 0.129D+00 0.681D+00
 Gap=     0.075 Goal=   None    Shift=    0.000
 RMSDP=7.47D-03 MaxDP=2.95D-01 DE=-3.51D+00 OVMax= 5.11D-01

 Cycle  10  Pass 1  IDiag  1:
 Density matrix breaks symmetry, PCut= 1.00D-04
 Density has only Abelian symmetry.
 E= -3890.65247255538     Delta-E=       -0.180456507132 Rises=F Damp=F
 DIIS: error= 5.15D-02 at cycle  10 NSaved=  10.
 NSaved=10 IEnMin=10 EnMin= -3890.65247255538     IErMin=10 ErrMin= 5.15D-02
 ErrMax= 5.15D-02 EMaxC= 1.00D-01 BMatC= 3.10D-01 BMatP= 4.35D-01
 IDIUse=3 WtCom= 4.85D-01 WtEn= 5.15D-01
 Coeff-Com:  0.198D-01-0.316D-01 0.313D-02 0.440D-03 0.817D-02-0.142D-01
 Coeff-Com: -0.117D-01-0.109D-01 0.500D+00 0.537D+00
 Coeff-En:   0.000D+00 0.000D+00 0.000D+00 0.000D+00 0.000D+00 0.000D+00
 Coeff-En:   0.000D+00 0.000D+00 0.439D+00 0.561D+00
 Coeff:      0.960D-02-0.153D-01 0.152D-02 0.213D-03 0.396D-02-0.689D-02
 Coeff:     -0.569D-02-0.530D-02 0.469D+00 0.549D+00
 Gap=     0.072 Goal=   None    Shift=    0.000
 RMSDP=4.09D-03 MaxDP=2.09D-01 DE=-1.80D-01 OVMax= 3.09D-01

 Cycle  11  Pass 1  IDiag  1:
 Density matrix breaks symmetry, PCut= 1.00D-04
 Density has only Abelian symmetry.
 E= -3890.96425441995     Delta-E=       -0.311781864579 Rises=F Damp=F
 DIIS: error= 2.24D-02 at cycle  11 NSaved=  11.
 NSaved=11 IEnMin=11 EnMin= -3890.96425441995     IErMin=11 ErrMin= 2.24D-02
 ErrMax= 2.24D-02 EMaxC= 1.00D-01 BMatC= 4.40D-02 BMatP= 3.10D-01
 IDIUse=3 WtCom= 7.76D-01 WtEn= 2.24D-01
 Coeff-Com: -0.387D-02 0.426D-02-0.183D-02 0.342D-02-0.213D-01-0.198D-01
 Coeff-Com:  0.109D-01 0.101D-01 0.119D+00 0.278D+00 0.621D+00
 Coeff-En:   0.000D+00 0.000D+00 0.000D+00 0.000D+00 0.000D+00 0.000D+00
 Coeff-En:   0.000D+00 0.000D+00 0.000D+00 0.183D+00 0.817D+00
 Coeff:     -0.300D-02 0.330D-02-0.142D-02 0.265D-02-0.165D-01-0.153D-01
 Coeff:      0.845D-02 0.781D-02 0.925D-01 0.256D+00 0.665D+00
 Gap=     0.075 Goal=   None    Shift=    0.000
 RMSDP=1.35D-03 MaxDP=5.97D-02 DE=-3.12D-01 OVMax= 6.40D-02

 Cycle  12  Pass 1  IDiag  1:
 Density matrix breaks symmetry, PCut= 1.00D-04
 Density has only Abelian symmetry.
 E= -3890.99985932845     Delta-E=       -0.035604908492 Rises=F Damp=F
 DIIS: error= 8.56D-03 at cycle  12 NSaved=  12.
 NSaved=12 IEnMin=12 EnMin= -3890.99985932845     IErMin=12 ErrMin= 8.56D-03
 ErrMax= 8.56D-03 EMaxC= 1.00D-01 BMatC= 8.28D-03 BMatP= 4.40D-02
 IDIUse=3 WtCom= 9.14D-01 WtEn= 8.56D-02
 EnCoef did     4 forward-backward iterations
 Coeff-Com: -0.182D-02 0.398D-02-0.882D-03 0.590D-03 0.273D-02-0.265D-02
 Coeff-Com:  0.216D-02-0.621D-02-0.288D-01 0.803D-01 0.314D+00 0.637D+00
 Coeff-En:   0.000D+00 0.000D+00 0.000D+00 0.000D+00 0.000D+00 0.000D+00
 Coeff-En:   0.000D+00 0.000D+00 0.000D+00 0.169D-01 0.200D+00 0.783D+00
 Coeff:     -0.167D-02 0.364D-02-0.807D-03 0.540D-03 0.250D-02-0.242D-02
 Coeff:      0.198D-02-0.568D-02-0.263D-01 0.749D-01 0.304D+00 0.650D+00
 Gap=     0.074 Goal=   None    Shift=    0.000
 RMSDP=6.12D-04 MaxDP=3.31D-02 DE=-3.56D-02 OVMax= 3.15D-02

 Cycle  13  Pass 1  IDiag  1:
 Density matrix breaks symmetry, PCut= 1.00D-04
 Density has only Abelian symmetry.
 E= -3891.00757982978     Delta-E=       -0.007720501330 Rises=F Damp=F
 DIIS: error= 2.45D-03 at cycle  13 NSaved=  13.
 NSaved=13 IEnMin=13 EnMin= -3891.00757982978     IErMin=13 ErrMin= 2.45D-03
 ErrMax= 2.45D-03 EMaxC= 1.00D-01 BMatC= 5.93D-04 BMatP= 8.28D-03
 IDIUse=3 WtCom= 9.76D-01 WtEn= 2.45D-02
 Coeff-Com: -0.120D-02 0.208D-02-0.121D-04 0.674D-05 0.136D-02-0.111D-02
 Coeff-Com:  0.103D-02-0.230D-02-0.215D-02 0.802D-03 0.659D-01 0.243D+00
 Coeff-Com:  0.692D+00
 Coeff-En:   0.000D+00 0.000D+00 0.000D+00 0.000D+00 0.000D+00 0.000D+00
 Coeff-En:   0.000D+00 0.000D+00 0.000D+00 0.000D+00 0.000D+00 0.141D+00
 Coeff-En:   0.859D+00
 Coeff:     -0.117D-02 0.203D-02-0.118D-04 0.658D-05 0.133D-02-0.108D-02
 Coeff:      0.101D-02-0.224D-02-0.210D-02 0.782D-03 0.643D-01 0.241D+00
 Coeff:      0.696D+00
 Gap=     0.073 Goal=   None    Shift=    0.000
 RMSDP=1.85D-04 MaxDP=7.89D-03 DE=-7.72D-03 OVMax= 1.64D-02

 Cycle  14  Pass 1  IDiag  1:
 Density matrix breaks symmetry, PCut= 1.00D-04
 Density has only Abelian symmetry.
 E= -3891.00824786239     Delta-E=       -0.000668032617 Rises=F Damp=F
 DIIS: error= 5.28D-04 at cycle  14 NSaved=  14.
 NSaved=14 IEnMin=14 EnMin= -3891.00824786239     IErMin=14 ErrMin= 5.28D-04
 ErrMax= 5.28D-04 EMaxC= 1.00D-01 BMatC= 3.16D-05 BMatP= 5.93D-04
 IDIUse=3 WtCom= 9.95D-01 WtEn= 5.28D-03
 Coeff-Com: -0.248D-03 0.434D-03 0.383D-05-0.163D-04 0.105D-03-0.347D-03
 Coeff-Com:  0.292D-03-0.404D-03 0.832D-03-0.135D-02-0.636D-02 0.371D-01
 Coeff-Com:  0.240D+00 0.730D+00
 Coeff-En:   0.000D+00 0.000D+00 0.000D+00 0.000D+00 0.000D+00 0.000D+00
 Coeff-En:   0.000D+00 0.000D+00 0.000D+00 0.000D+00 0.000D+00 0.000D+00
 Coeff-En:   0.616D-01 0.938D+00
 Coeff:     -0.247D-03 0.431D-03 0.381D-05-0.163D-04 0.104D-03-0.345D-03
 Coeff:      0.290D-03-0.401D-03 0.827D-03-0.134D-02-0.633D-02 0.369D-01
 Coeff:      0.239D+00 0.731D+00
 Gap=     0.073 Goal=   None    Shift=    0.000
 RMSDP=3.73D-05 MaxDP=1.35D-03 DE=-6.68D-04 OVMax= 2.35D-03

 Cycle  15  Pass 1  IDiag  1:
 Density matrix breaks symmetry, PCut= 1.00D-04
 Density has only Abelian symmetry.
 E= -3891.00827435130     Delta-E=       -0.000026488906 Rises=F Damp=F
 DIIS: error= 1.40D-04 at cycle  15 NSaved=  15.
 NSaved=15 IEnMin=15 EnMin= -3891.00827435130     IErMin=15 ErrMin= 1.40D-04
 ErrMax= 1.40D-04 EMaxC= 1.00D-01 BMatC= 4.88D-06 BMatP= 3.16D-05
 IDIUse=3 WtCom= 9.99D-01 WtEn= 1.40D-03
 Coeff-Com:  0.206D-04-0.133D-04 0.636D-05-0.840D-05-0.123D-03-0.693D-04
 Coeff-Com:  0.429D-04-0.352D-04 0.314D-03 0.120D-03-0.118D-01 0.151D-02
 Coeff-Com:  0.732D-01 0.466D+00 0.470D+00
 Coeff-En:   0.000D+00 0.000D+00 0.000D+00 0.000D+00 0.000D+00 0.000D+00
 Coeff-En:   0.000D+00 0.000D+00 0.000D+00 0.000D+00 0.000D+00 0.000D+00
 Coeff-En:   0.000D+00 0.000D+00 0.100D+01
 Coeff:      0.206D-04-0.133D-04 0.635D-05-0.839D-05-0.123D-03-0.692D-04
 Coeff:      0.428D-04-0.351D-04 0.313D-03 0.120D-03-0.118D-01 0.151D-02
 Coeff:      0.731D-01 0.466D+00 0.471D+00
 Gap=     0.073 Goal=   None    Shift=    0.000
 RMSDP=1.65D-05 MaxDP=5.03D-04 DE=-2.65D-05 OVMax= 9.65D-04

 Cycle  16  Pass 1  IDiag  1:
 Density matrix breaks symmetry, PCut= 1.00D-04
 Density has only Abelian symmetry.
 E= -3891.00828000951     Delta-E=       -0.000005658211 Rises=F Damp=F
 DIIS: error= 6.29D-05 at cycle  16 NSaved=  16.
 NSaved=16 IEnMin=16 EnMin= -3891.00828000951     IErMin=16 ErrMin= 6.29D-05
 ErrMax= 6.29D-05 EMaxC= 1.00D-01 BMatC= 6.36D-07 BMatP= 4.88D-06
 IDIUse=1 WtCom= 1.00D+00 WtEn= 0.00D+00
 Coeff-Com:  0.193D-05 0.522D-05 0.489D-05 0.457D-05-0.538D-04 0.488D-05
 Coeff-Com: -0.947D-05 0.942D-06-0.448D-03 0.645D-03-0.268D-02 0.569D-02
 Coeff-Com:  0.292D-01 0.133D+00 0.162D+00 0.673D+00
 Coeff:      0.193D-05 0.522D-05 0.489D-05 0.457D-05-0.538D-04 0.488D-05
 Coeff:     -0.947D-05 0.942D-06-0.448D-03 0.645D-03-0.268D-02 0.569D-02
 Coeff:      0.292D-01 0.133D+00 0.162D+00 0.673D+00
 Gap=     0.073 Goal=   None    Shift=    0.000
 RMSDP=3.84D-06 MaxDP=1.03D-04 DE=-5.66D-06 OVMax= 2.96D-04

 Cycle  17  Pass 1  IDiag  1:
 E= -3891.00828067669     Delta-E=       -0.000000667181 Rises=F Damp=F
 DIIS: error= 2.92D-05 at cycle  17 NSaved=  17.
 NSaved=17 IEnMin=17 EnMin= -3891.00828067669     IErMin=17 ErrMin= 2.92D-05
 ErrMax= 2.92D-05 EMaxC= 1.00D-01 BMatC= 1.13D-07 BMatP= 6.36D-07
 IDIUse=1 WtCom= 1.00D+00 WtEn= 0.00D+00
 Coeff-Com:  0.555D-05-0.130D-04 0.356D-06 0.126D-05-0.129D-05 0.341D-05
 Coeff-Com: -0.706D-06-0.144D-05-0.641D-04 0.505D-04 0.121D-03 0.992D-03
 Coeff-Com:  0.490D-02-0.186D-01-0.372D-01-0.222D+00 0.127D+01
 Coeff:      0.555D-05-0.130D-04 0.356D-06 0.126D-05-0.129D-05 0.341D-05
 Coeff:     -0.706D-06-0.144D-05-0.641D-04 0.505D-04 0.121D-03 0.992D-03
 Coeff:      0.490D-02-0.186D-01-0.372D-01-0.222D+00 0.127D+01
 Gap=     0.073 Goal=   None    Shift=    0.000
 RMSDP=2.44D-06 MaxDP=8.16D-05 DE=-6.67D-07 OVMax= 1.70D-04

 Cycle  18  Pass 1  IDiag  1:
 E= -3891.00828081389     Delta-E=       -0.000000137199 Rises=F Damp=F
 DIIS: error= 1.94D-06 at cycle  18 NSaved=  18.
 NSaved=18 IEnMin=18 EnMin= -3891.00828081389     IErMin=18 ErrMin= 1.94D-06
 ErrMax= 1.94D-06 EMaxC= 1.00D-01 BMatC= 5.23D-10 BMatP= 1.13D-07
 IDIUse=1 WtCom= 1.00D+00 WtEn= 0.00D+00
 Coeff-Com:  0.142D-05-0.333D-05 0.450D-06 0.103D-06 0.354D-07 0.345D-08
 Coeff-Com:  0.295D-06-0.119D-05 0.657D-05-0.202D-04 0.978D-04 0.187D-03
 Coeff-Com:  0.905D-03-0.942D-02-0.175D-01-0.110D+00 0.430D+00 0.706D+00
 Coeff:      0.142D-05-0.333D-05 0.450D-06 0.103D-06 0.354D-07 0.345D-08
 Coeff:      0.295D-06-0.119D-05 0.657D-05-0.202D-04 0.978D-04 0.187D-03
 Coeff:      0.905D-03-0.942D-02-0.175D-01-0.110D+00 0.430D+00 0.706D+00
 Gap=     0.073 Goal=   None    Shift=    0.000
 RMSDP=2.42D-07 MaxDP=6.08D-06 DE=-1.37D-07 OVMax= 1.26D-05

 Cycle  19  Pass 1  IDiag  1:
 E= -3891.00828081446     Delta-E=       -0.000000000571 Rises=F Damp=F
 DIIS: error= 1.32D-06 at cycle  19 NSaved=  19.
 NSaved=19 IEnMin=19 EnMin= -3891.00828081446     IErMin=19 ErrMin= 1.32D-06
 ErrMax= 1.32D-06 EMaxC= 1.00D-01 BMatC= 1.71D-10 BMatP= 5.23D-10
 IDIUse=1 WtCom= 1.00D+00 WtEn= 0.00D+00
 Coeff-Com: -0.608D-06 0.126D-05 0.588D-07-0.137D-06-0.192D-06-0.218D-06
 Coeff-Com: -0.112D-06 0.119D-06 0.725D-05-0.111D-04 0.470D-04 0.134D-04
 Coeff-Com: -0.585D-03-0.203D-02-0.203D-02-0.104D-01-0.350D-02 0.186D+00
 Coeff-Com:  0.832D+00
 Coeff:     -0.608D-06 0.126D-05 0.588D-07-0.137D-06-0.192D-06-0.218D-06
 Coeff:     -0.112D-06 0.119D-06 0.725D-05-0.111D-04 0.470D-04 0.134D-04
 Coeff:     -0.585D-03-0.203D-02-0.203D-02-0.104D-01-0.350D-02 0.186D+00
 Coeff:      0.832D+00
 Gap=     0.073 Goal=   None    Shift=    0.000
 RMSDP=1.03D-07 MaxDP=3.72D-06 DE=-5.71D-10 OVMax= 4.21D-06

 Cycle  20  Pass 1  IDiag  1:
 E= -3891.00828081466     Delta-E=       -0.000000000196 Rises=F Damp=F
 DIIS: error= 3.87D-07 at cycle  20 NSaved=  20.
 NSaved=20 IEnMin=20 EnMin= -3891.00828081466     IErMin=20 ErrMin= 3.87D-07
 ErrMax= 3.87D-07 EMaxC= 1.00D-01 BMatC= 1.87D-11 BMatP= 1.71D-10
 IDIUse=1 WtCom= 1.00D+00 WtEn= 0.00D+00
 Coeff-Com: -0.578D-07 0.151D-06-0.199D-07-0.548D-08 0.228D-07-0.404D-07
 Coeff-Com:  0.243D-07-0.176D-07 0.864D-06-0.657D-06-0.355D-05 0.918D-06
 Coeff-Com: -0.252D-03 0.930D-04 0.918D-03 0.764D-02-0.296D-01-0.247D-01
 Coeff-Com:  0.842D-01 0.962D+00
 Coeff:     -0.578D-07 0.151D-06-0.199D-07-0.548D-08 0.228D-07-0.404D-07
 Coeff:      0.243D-07-0.176D-07 0.864D-06-0.657D-06-0.355D-05 0.918D-06
 Coeff:     -0.252D-03 0.930D-04 0.918D-03 0.764D-02-0.296D-01-0.247D-01
 Coeff:      0.842D-01 0.962D+00
 Gap=     0.073 Goal=   None    Shift=    0.000
 RMSDP=3.29D-08 MaxDP=1.32D-06 DE=-1.96D-10 OVMax= 1.90D-06

 Cycle  21  Pass 1  IDiag  1:
 E= -3891.00828081471     Delta-E=       -0.000000000051 Rises=F Damp=F
 DIIS: error= 1.10D-07 at cycle  21 NSaved=  20.
 NSaved=20 IEnMin=20 EnMin= -3891.00828081471     IErMin=20 ErrMin= 1.10D-07
 ErrMax= 1.10D-07 EMaxC= 1.00D-01 BMatC= 1.60D-12 BMatP= 1.87D-11
 IDIUse=1 WtCom= 1.00D+00 WtEn= 0.00D+00
 Coeff-Com:  0.297D-08-0.562D-08 0.150D-08 0.291D-07-0.173D-07 0.395D-08
 Coeff-Com: -0.393D-08 0.108D-06 0.909D-07-0.233D-05-0.159D-05-0.538D-04
 Coeff-Com:  0.777D-04 0.328D-03 0.286D-02-0.663D-02-0.130D-01-0.447D-02
 Coeff-Com:  0.189D+00 0.832D+00
 Coeff:      0.297D-08-0.562D-08 0.150D-08 0.291D-07-0.173D-07 0.395D-08
 Coeff:     -0.393D-08 0.108D-06 0.909D-07-0.233D-05-0.159D-05-0.538D-04
 Coeff:      0.777D-04 0.328D-03 0.286D-02-0.663D-02-0.130D-01-0.447D-02
 Coeff:      0.189D+00 0.832D+00
 Gap=     0.073 Goal=   None    Shift=    0.000
 RMSDP=9.55D-09 MaxDP=3.40D-07 DE=-5.09D-11 OVMax= 7.82D-07

 SCF Done:  E(RB3LYP) =  -3891.00828081     A.U. after   21 cycles
             Convg  =    0.9552D-08             -V/T =  2.0403
 KE= 3.740251124988D+03 PE=-1.324360644139D+04 EE= 3.577877182220D+03
 Leave Link  502 at Tue May  5 13:04:03 2015, MaxMem= 1073741824 cpu:     104.5
 (Enter /usr/g09/l601.exe)
 Copying SCF densities to generalized density rwf, IOpCl= 0 IROHF=0.

 **********************************************************************

            Population analysis using the SCF density.

 **********************************************************************

 Orbital symmetries:
       Occupied  (E) (E) (A1) (B1) (E) (E) (A1) (B2) (E) (E) (A1)
                 (B1) (E) (E) (A1) (B2) (B1) (A1) (E) (E) (B2)
                 (A1) (E) (E) (A1) (E) (E) (B1) (A1) (B2) (E) (E)
                 (E) (E) (A2) (B2) (E) (E) (A2) (B1) (A1) (A1)
                 (A1) (E) (E) (A1) (E) (E) (A1) (A1) (E) (E) (B2)
                 (B1) (E) (E) (A1) (E) (E) (B2) (B1) (A1) (A1)
                 (B1) (B2) (E) (E) (E) (E) (A1) (A1) (E) (E) (E)
                 (E) (E) (E) (B2) (B1) (E) (E) (B2) (B1) (A2) (A2)
       Virtual   (E) (E) (A1) (B1) (B2) (A1) (A1) (A1) (E) (E)
                 (E) (E) (A1) (A1) (E) (E) (E) (E) (A1) (A1) (B2)
                 (B1) (B1) (B2) (E) (E) (B1) (B2) (E) (E) (A1)
                 (A1) (E) (E) (E) (E) (E) (E) (A1) (A1) (E) (E)
                 (B1) (B2) (A2) (B2) (B1) (E) (E) (A2) (E) (E)
                 (A1) (E) (E) (E) (E) (A1) (B1) (B2) (E) (E) (B2)
                 (B1) (A2) (E) (E) (A2) (A1) (E) (E) (B2) (B1)
                 (E) (E) (A1) (A1) (A2) (E) (E) (E) (E) (A2) (A1)
                 (B1) (B2) (E) (E) (A1) (A1) (E) (E) (B1) (B2)
                 (E) (E) (E) (E) (A1) (B1) (B2) (A1) (A1)
 The electronic state is 1-A1.
 Alpha  occ. eigenvalues -- -101.57377-101.57377-101.57376-101.57376-101.57371
 Alpha  occ. eigenvalues -- -101.57371-101.57370-101.57370  -9.50465  -9.50465
 Alpha  occ. eigenvalues --   -9.50463  -9.50461  -9.50459  -9.50459  -9.50457
 Alpha  occ. eigenvalues --   -9.50456  -7.26653  -7.26653  -7.26652  -7.26652
 Alpha  occ. eigenvalues --   -7.26648  -7.26648  -7.26647  -7.26647  -7.26055
 Alpha  occ. eigenvalues --   -7.26054  -7.26054  -7.26053  -7.26048  -7.26048
 Alpha  occ. eigenvalues --   -7.26046  -7.26046  -7.25665  -7.25665  -7.25665
 Alpha  occ. eigenvalues --   -7.25663  -7.25659  -7.25659  -7.25659  -7.25658
 Alpha  occ. eigenvalues --   -3.89145  -3.88610  -2.33087  -2.28573  -2.28573
 Alpha  occ. eigenvalues --   -2.28047  -2.27971  -2.27971  -0.87928  -0.87099
 Alpha  occ. eigenvalues --   -0.84931  -0.84931  -0.84930  -0.84926  -0.84533
 Alpha  occ. eigenvalues --   -0.84533  -0.54588  -0.52321  -0.52321  -0.50480
 Alpha  occ. eigenvalues --   -0.50475  -0.50253  -0.48629  -0.48133  -0.48127
 Alpha  occ. eigenvalues --   -0.44722  -0.44722  -0.41203  -0.41203  -0.40364
 Alpha  occ. eigenvalues --   -0.39163  -0.36287  -0.36287  -0.35481  -0.35481
 Alpha  occ. eigenvalues --   -0.34969  -0.34969  -0.34927  -0.34927  -0.33511
 Alpha  occ. eigenvalues --   -0.33511  -0.32611  -0.32602  -0.32565  -0.31999
 Alpha virt. eigenvalues --   -0.24705  -0.24705  -0.23300  -0.15714  -0.15694
 Alpha virt. eigenvalues --   -0.09809   0.00835   0.02222   0.03597   0.03597
 Alpha virt. eigenvalues --    0.05595   0.05595   0.06062   0.07492   0.15154
 Alpha virt. eigenvalues --    0.15154   0.24378   0.24378   0.27526   0.29533
 Alpha virt. eigenvalues --    0.33001   0.33003   0.33546   0.33547   0.35918
 Alpha virt. eigenvalues --    0.35918   0.36812   0.36814   0.37980   0.37980
 Alpha virt. eigenvalues --    0.38255   0.40710   0.41188   0.41188   0.43385
 Alpha virt. eigenvalues --    0.43385   0.45863   0.45863   0.46173   0.49917
 Alpha virt. eigenvalues --    0.50590   0.50590   0.51057   0.51071   0.51103
 Alpha virt. eigenvalues --    0.54765   0.54783   0.56181   0.56181   0.56732
 Alpha virt. eigenvalues --    0.57516   0.57516   0.61122   0.64202   0.64202
 Alpha virt. eigenvalues --    0.67746   0.67746   0.69032   0.69169   0.69206
 Alpha virt. eigenvalues --    0.82069   0.82069   0.82074   0.82079   0.82542
 Alpha virt. eigenvalues --    0.82741   0.82741   0.82882   0.83362   0.83605
 Alpha virt. eigenvalues --    0.83605   0.83725   0.83740   0.84389   0.84389
 Alpha virt. eigenvalues --    0.84881   0.84892   0.86955   0.88291   0.88291
 Alpha virt. eigenvalues --    0.88318   0.88318   0.89048   0.92298   0.93884
 Alpha virt. eigenvalues --    0.93889   0.99862   0.99862   1.03425   1.10541
 Alpha virt. eigenvalues --    1.10606   1.10606   1.11314   1.11341   1.16525
 Alpha virt. eigenvalues --    1.16525   1.19209   1.19209   1.23555   1.30932
 Alpha virt. eigenvalues --    1.30963   5.79589  10.32531
     Molecular Orbital Coefficients:
                           1         2         3         4         5
                        (E)--O    (E)--O    (A1)--O   (B1)--O   (E)--O
     Eigenvalues --  -101.57377-101.57377-101.57376-101.57376-101.57371
   1 1   Ir 1S          0.00000   0.00000   0.00018   0.00000   0.00000
   2        2S          0.00000   0.00000   0.00002   0.00000   0.00000
   3        3S          0.00000   0.00000   0.00425   0.00000   0.00000
   4        4PX         0.00002   0.00000   0.00000   0.00000   0.00021
   5        4PY         0.00000   0.00002   0.00000   0.00000   0.00000
   6        4PZ         0.00000   0.00000  -0.00020   0.00000   0.00000
   7        5PX        -0.00023   0.00000   0.00000   0.00000   0.00280
   8        5PY         0.00000  -0.00023   0.00000   0.00000   0.00000
   9        5PZ         0.00000   0.00000  -0.00305   0.00000   0.00000
  10        6PX         0.00017   0.00000   0.00000   0.00000   0.00088
  11        6PY         0.00000   0.00017   0.00000   0.00000   0.00000
  12        6PZ         0.00000   0.00000   0.00008   0.00000   0.00000
  13        7D 0        0.00000   0.00000  -0.00012   0.00000   0.00000
  14        7D+1       -0.00003   0.00000   0.00000   0.00000  -0.00001
  15        7D-1        0.00000  -0.00003   0.00000   0.00000   0.00000
  16        7D+2        0.00000   0.00000   0.00000   0.00000   0.00000
  17        7D-2        0.00000   0.00000   0.00000   0.00008   0.00000
  18        8D 0        0.00000   0.00000   0.00100   0.00000   0.00000
  19        8D+1       -0.00016   0.00000   0.00000   0.00000   0.00039
  20        8D-1        0.00000  -0.00016   0.00000   0.00000   0.00000
  21        8D+2        0.00000   0.00000   0.00000   0.00000   0.00000
  22        8D-2        0.00000   0.00000   0.00000  -0.00022   0.00000
  23 2   Ir 1S          0.00000   0.00000   0.00037   0.00000   0.00000
  24        2S          0.00000   0.00000   0.00042   0.00000   0.00000
  25        3S          0.00000   0.00000  -0.00966   0.00000   0.00000
  26        4PX        -0.00020   0.00000   0.00000   0.00000  -0.00005
  27        4PY         0.00000  -0.00020   0.00000   0.00000   0.00000
  28        4PZ         0.00000   0.00000  -0.00017   0.00000   0.00000
  29        5PX        -0.00280   0.00000   0.00000   0.00000  -0.00022
  30        5PY         0.00000  -0.00280   0.00000   0.00000   0.00000
  31        5PZ         0.00000   0.00000  -0.00195   0.00000   0.00000
  32        6PX        -0.00085   0.00000   0.00000   0.00000  -0.00031
  33        6PY         0.00000  -0.00085   0.00000   0.00000   0.00000
  34        6PZ         0.00000   0.00000  -0.00082   0.00000   0.00000
  35        7D 0        0.00000   0.00000  -0.00005   0.00000   0.00000
  36        7D+1       -0.00001   0.00000   0.00000   0.00000  -0.00003
  37        7D-1        0.00000  -0.00001   0.00000   0.00000   0.00000
  38        7D+2        0.00000   0.00000   0.00000   0.00000   0.00000
  39        7D-2        0.00000   0.00000   0.00000  -0.00010   0.00000
  40        8D 0        0.00000   0.00000   0.00015   0.00000   0.00000
  41        8D+1        0.00041   0.00000   0.00000   0.00000  -0.00009
  42        8D-1        0.00000   0.00041   0.00000   0.00000   0.00000
  43        8D+2        0.00000   0.00000   0.00000   0.00000   0.00000
  44        8D-2        0.00000   0.00000   0.00000  -0.00036   0.00000
  45 3   Cl 1S          0.49658   0.49658   0.49817   0.49824   0.04053
  46        2S          0.00631   0.00631   0.00633   0.00635   0.00052
  47        2PX        -0.00003  -0.00001  -0.00002  -0.00003   0.00000
  48        2PY        -0.00001  -0.00003  -0.00002  -0.00003  -0.00001
  49        2PZ         0.00001   0.00001   0.00001   0.00001   0.00000
  50        3S         -0.00270  -0.00270  -0.00271  -0.00250  -0.00014
  51        3PX         0.00010   0.00003   0.00007   0.00013  -0.00001
  52        3PY         0.00003   0.00010   0.00007   0.00013   0.00002
  53        3PZ        -0.00003  -0.00003  -0.00004  -0.00002   0.00000
  54        4S          0.00290   0.00290   0.00323   0.00185   0.00001
  55        4PX        -0.00052  -0.00063  -0.00057  -0.00043   0.00003
  56        4PY        -0.00063  -0.00052  -0.00057  -0.00043  -0.00003
  57        4PZ         0.00022   0.00022   0.00037   0.00009  -0.00007
  58        5D 0       -0.00004  -0.00004   0.00000  -0.00004  -0.00001
  59        5D+1       -0.00001  -0.00003  -0.00004  -0.00002   0.00000
  60        5D-1       -0.00003  -0.00001  -0.00004  -0.00002   0.00000
  61        5D+2       -0.00002   0.00002   0.00000   0.00000   0.00000
  62        5D-2        0.00007   0.00007   0.00004   0.00003   0.00000
  63 4   Cl 1S         -0.49658   0.49658   0.49817  -0.49824  -0.04053
  64        2S         -0.00631   0.00631   0.00633  -0.00635  -0.00052
  65        2PX        -0.00003   0.00001   0.00002  -0.00003   0.00000
  66        2PY         0.00001  -0.00003  -0.00002   0.00003   0.00001
  67        2PZ        -0.00001   0.00001   0.00001  -0.00001   0.00000
  68        3S          0.00270  -0.00270  -0.00271   0.00250   0.00014
  69        3PX         0.00010  -0.00003  -0.00007   0.00013  -0.00001
  70        3PY        -0.00003   0.00010   0.00007  -0.00013  -0.00002
  71        3PZ         0.00003  -0.00003  -0.00004   0.00002   0.00000
  72        4S         -0.00290   0.00290   0.00323  -0.00185  -0.00001
  73        4PX        -0.00052   0.00063   0.00057  -0.00043   0.00003
  74        4PY         0.00063  -0.00052  -0.00057   0.00043   0.00003
  75        4PZ        -0.00022   0.00022   0.00037  -0.00009   0.00007
  76        5D 0        0.00004  -0.00004   0.00000   0.00004   0.00001
  77        5D+1       -0.00001   0.00003   0.00004  -0.00002   0.00000
  78        5D-1        0.00003  -0.00001  -0.00004   0.00002   0.00000
  79        5D+2        0.00002   0.00002   0.00000   0.00000   0.00000
  80        5D-2        0.00007  -0.00007  -0.00004   0.00003   0.00000
  81 5   Cl 1S          0.49658  -0.49658   0.49817  -0.49824   0.04053
  82        2S          0.00631  -0.00631   0.00633  -0.00635   0.00052
  83        2PX        -0.00003   0.00001  -0.00002   0.00003   0.00000
  84        2PY         0.00001  -0.00003   0.00002  -0.00003   0.00001
  85        2PZ         0.00001  -0.00001   0.00001  -0.00001   0.00000
  86        3S         -0.00270   0.00270  -0.00271   0.00250  -0.00014
  87        3PX         0.00010  -0.00003   0.00007  -0.00013  -0.00001
  88        3PY        -0.00003   0.00010  -0.00007   0.00013  -0.00002
  89        3PZ        -0.00003   0.00003  -0.00004   0.00002   0.00000
  90        4S          0.00290  -0.00290   0.00323  -0.00185   0.00001
  91        4PX        -0.00052   0.00063  -0.00057   0.00043   0.00003
  92        4PY         0.00063  -0.00052   0.00057  -0.00043   0.00003
  93        4PZ         0.00022  -0.00022   0.00037  -0.00009  -0.00007
  94        5D 0       -0.00004   0.00004   0.00000   0.00004  -0.00001
  95        5D+1       -0.00001   0.00003  -0.00004   0.00002   0.00000
  96        5D-1        0.00003  -0.00001   0.00004  -0.00002   0.00000
  97        5D+2       -0.00002  -0.00002   0.00000   0.00000   0.00000
  98        5D-2       -0.00007   0.00007  -0.00004   0.00003   0.00000
  99 6   Cl 1S         -0.49658  -0.49658   0.49817   0.49824  -0.04053
 100        2S         -0.00631  -0.00631   0.00633   0.00635  -0.00052
 101        2PX        -0.00003  -0.00001   0.00002   0.00003   0.00000
 102        2PY        -0.00001  -0.00003   0.00002   0.00003  -0.00001
 103        2PZ        -0.00001  -0.00001   0.00001   0.00001   0.00000
 104        3S          0.00270   0.00270  -0.00271  -0.00250   0.00014
 105        3PX         0.00010   0.00003  -0.00007  -0.00013  -0.00001
 106        3PY         0.00003   0.00010  -0.00007  -0.00013   0.00002
 107        3PZ         0.00003   0.00003  -0.00004  -0.00002   0.00000
 108        4S         -0.00290  -0.00290   0.00323   0.00185  -0.00001
 109        4PX        -0.00052  -0.00063   0.00057   0.00043   0.00003
 110        4PY        -0.00063  -0.00052   0.00057   0.00043  -0.00003
 111        4PZ        -0.00022  -0.00022   0.00037   0.00009   0.00007
 112        5D 0        0.00004   0.00004   0.00000  -0.00004   0.00001
 113        5D+1       -0.00001  -0.00003   0.00004   0.00002   0.00000
 114        5D-1       -0.00003  -0.00001   0.00004   0.00002   0.00000
 115        5D+2        0.00002  -0.00002   0.00000   0.00000   0.00000
 116        5D-2       -0.00007  -0.00007   0.00004   0.00003   0.00000
 117 7   Cl 1S          0.00000   0.05730  -0.00823   0.00000   0.00000
 118        2S          0.00000   0.00072  -0.00012   0.00000   0.00000
 119        2PX        -0.00001   0.00000   0.00000  -0.00001   0.00001
 120        2PY         0.00000   0.00000   0.00001   0.00000   0.00000
 121        2PZ         0.00000   0.00000   0.00000   0.00000   0.00000
 122        3S          0.00000  -0.00043  -0.00001   0.00000   0.00000
 123        3PX         0.00005   0.00000   0.00000   0.00004  -0.00006
 124        3PY         0.00000   0.00001  -0.00005   0.00000   0.00000
 125        3PZ         0.00000   0.00000   0.00000   0.00000   0.00000
 126        4S          0.00000   0.00066   0.00028   0.00000   0.00000
 127        4PX        -0.00004   0.00000   0.00000  -0.00001  -0.00012
 128        4PY         0.00000  -0.00019  -0.00016   0.00000   0.00000
 129        4PZ         0.00000  -0.00014  -0.00013   0.00000   0.00000
 130        5D 0        0.00000   0.00000   0.00000   0.00000   0.00000
 131        5D+1        0.00000   0.00000   0.00000   0.00000   0.00002
 132        5D-1        0.00000   0.00001   0.00001   0.00000   0.00000
 133        5D+2        0.00000  -0.00002  -0.00003   0.00000   0.00000
 134        5D-2       -0.00001   0.00000   0.00000  -0.00002   0.00003
 135 8   Cl 1S         -0.05731   0.00000  -0.00823   0.00000   0.70228
 136        2S         -0.00072   0.00000  -0.00012   0.00000   0.00893
 137        2PX         0.00000   0.00000  -0.00001   0.00000   0.00004
 138        2PY         0.00000  -0.00001   0.00000   0.00001   0.00000
 139        2PZ         0.00000   0.00000   0.00000   0.00000  -0.00001
 140        3S          0.00043   0.00000  -0.00001   0.00000  -0.00380
 141        3PX         0.00001   0.00000   0.00005   0.00000  -0.00013
 142        3PY         0.00000   0.00005   0.00000  -0.00004   0.00000
 143        3PZ         0.00000   0.00000   0.00000   0.00000   0.00004
 144        4S         -0.00066   0.00000   0.00028   0.00000   0.00405
 145        4PX        -0.00019   0.00000   0.00016   0.00000   0.00113
 146        4PY         0.00000  -0.00004   0.00000   0.00001   0.00000
 147        4PZ         0.00014   0.00000  -0.00013   0.00000  -0.00029
 148        5D 0        0.00000   0.00000   0.00000   0.00000  -0.00005
 149        5D+1        0.00001   0.00000  -0.00001   0.00000  -0.00003
 150        5D-1        0.00000   0.00000   0.00000   0.00000   0.00000
 151        5D+2       -0.00002   0.00000   0.00003   0.00000   0.00009
 152        5D-2        0.00000   0.00001   0.00000  -0.00002   0.00000
 153 9   Cl 1S          0.05731   0.00000  -0.00823   0.00000  -0.70228
 154        2S          0.00072   0.00000  -0.00012   0.00000  -0.00893
 155        2PX         0.00000   0.00000   0.00001   0.00000   0.00004
 156        2PY         0.00000  -0.00001   0.00000  -0.00001   0.00000
 157        2PZ         0.00000   0.00000   0.00000   0.00000   0.00001
 158        3S         -0.00043   0.00000  -0.00001   0.00000   0.00380
 159        3PX         0.00001   0.00000  -0.00005   0.00000  -0.00013
 160        3PY         0.00000   0.00005   0.00000   0.00004   0.00000
 161        3PZ         0.00000   0.00000   0.00000   0.00000  -0.00004
 162        4S          0.00066   0.00000   0.00028   0.00000  -0.00405
 163        4PX        -0.00019   0.00000  -0.00016   0.00000   0.00113
 164        4PY         0.00000  -0.00004   0.00000  -0.00001   0.00000
 165        4PZ        -0.00014   0.00000  -0.00013   0.00000   0.00029
 166        5D 0        0.00000   0.00000   0.00000   0.00000   0.00005
 167        5D+1        0.00001   0.00000   0.00001   0.00000  -0.00003
 168        5D-1        0.00000   0.00000   0.00000   0.00000   0.00000
 169        5D+2        0.00002   0.00000   0.00003   0.00000  -0.00009
 170        5D-2        0.00000  -0.00001   0.00000  -0.00002   0.00000
 171 10  Cl 1S          0.00000  -0.05730  -0.00823   0.00000   0.00000
 172        2S          0.00000  -0.00072  -0.00012   0.00000   0.00000
 173        2PX        -0.00001   0.00000   0.00000   0.00001   0.00001
 174        2PY         0.00000   0.00000  -0.00001   0.00000   0.00000
 175        2PZ         0.00000   0.00000   0.00000   0.00000   0.00000
 176        3S          0.00000   0.00043  -0.00001   0.00000   0.00000
 177        3PX         0.00005   0.00000   0.00000  -0.00004  -0.00006
 178        3PY         0.00000   0.00001   0.00005   0.00000   0.00000
 179        3PZ         0.00000   0.00000   0.00000   0.00000   0.00000
 180        4S          0.00000  -0.00066   0.00028   0.00000   0.00000
 181        4PX        -0.00004   0.00000   0.00000   0.00001  -0.00012
 182        4PY         0.00000  -0.00019   0.00016   0.00000   0.00000
 183        4PZ         0.00000   0.00014  -0.00013   0.00000   0.00000
 184        5D 0        0.00000   0.00000   0.00000   0.00000   0.00000
 185        5D+1        0.00000   0.00000   0.00000   0.00000   0.00002
 186        5D-1        0.00000   0.00001  -0.00001   0.00000   0.00000
 187        5D+2        0.00000   0.00002  -0.00003   0.00000   0.00000
 188        5D-2        0.00001   0.00000   0.00000  -0.00002  -0.00003
                           6         7         8         9        10
                        (E)--O    (A1)--O   (B2)--O   (E)--O    (E)--O
     Eigenvalues --  -101.57371-101.57370-101.57370  -9.50465  -9.50465
   1 1   Ir 1S          0.00000   0.00037   0.00000   0.00000   0.00000
   2        2S          0.00000   0.00043   0.00000   0.00000   0.00000
   3        3S          0.00000  -0.00953   0.00000   0.00000   0.00000
   4        4PX         0.00000   0.00000   0.00000   0.00002   0.00000
   5        4PY        -0.00021   0.00000   0.00000   0.00000   0.00002
   6        4PZ         0.00000   0.00017   0.00000   0.00000   0.00000
   7        5PX         0.00000   0.00000   0.00000   0.00293   0.00000
   8        5PY        -0.00280   0.00000   0.00000   0.00000   0.00293
   9        5PZ         0.00000   0.00184   0.00000   0.00000   0.00000
  10        6PX         0.00000   0.00000   0.00000  -0.00030   0.00000
  11        6PY        -0.00088   0.00000   0.00000   0.00000  -0.00030
  12        6PZ         0.00000   0.00082   0.00000   0.00000   0.00000
  13        7D 0        0.00000  -0.00006   0.00000   0.00000   0.00000
  14        7D+1        0.00000   0.00000   0.00000   0.00012   0.00000
  15        7D-1        0.00001   0.00000   0.00000   0.00000   0.00012
  16        7D+2        0.00000   0.00000   0.00010   0.00000   0.00000
  17        7D-2        0.00000   0.00000   0.00000   0.00000   0.00000
  18        8D 0        0.00000   0.00019   0.00000   0.00000   0.00000
  19        8D+1        0.00000   0.00000   0.00000   0.00099   0.00000
  20        8D-1       -0.00039   0.00000   0.00000   0.00000   0.00099
  21        8D+2        0.00000   0.00000   0.00036   0.00000   0.00000
  22        8D-2        0.00000   0.00000   0.00000   0.00000   0.00000
  23 2   Ir 1S          0.00000   0.00019   0.00000   0.00000   0.00000
  24        2S          0.00000   0.00004   0.00000   0.00000   0.00000
  25        3S          0.00000   0.00393   0.00000   0.00000   0.00000
  26        4PX         0.00000   0.00000   0.00000   0.00100   0.00000
  27        4PY         0.00005   0.00000   0.00000   0.00000   0.00100
  28        4PZ         0.00000   0.00019   0.00000   0.00000   0.00000
  29        5PX         0.00000   0.00000   0.00000   0.01392   0.00000
  30        5PY         0.00022   0.00000   0.00000   0.00000   0.01392
  31        5PZ         0.00000   0.00298   0.00000   0.00000   0.00000
  32        6PX         0.00000   0.00000   0.00000   0.00455   0.00000
  33        6PY         0.00031   0.00000   0.00000   0.00000   0.00455
  34        6PZ         0.00000  -0.00010   0.00000   0.00000   0.00000
  35        7D 0        0.00000  -0.00012   0.00000   0.00000   0.00000
  36        7D+1        0.00000   0.00000   0.00000   0.00005   0.00000
  37        7D-1        0.00003   0.00000   0.00000   0.00000   0.00005
  38        7D+2        0.00000   0.00000  -0.00008   0.00000   0.00000
  39        7D-2        0.00000   0.00000   0.00000   0.00000   0.00000
  40        8D 0        0.00000   0.00100   0.00000   0.00000   0.00000
  41        8D+1        0.00000   0.00000   0.00000  -0.00211   0.00000
  42        8D-1        0.00009   0.00000   0.00000   0.00000  -0.00211
  43        8D+2        0.00000   0.00000   0.00023   0.00000   0.00000
  44        8D-2        0.00000   0.00000   0.00000   0.00000   0.00000
  45 3   Cl 1S         -0.04052   0.00822   0.00000  -0.13976  -0.13977
  46        2S         -0.00052   0.00009   0.00000   0.50298   0.50298
  47        2PX         0.00001   0.00001   0.00001  -0.00135  -0.00141
  48        2PY         0.00000   0.00001  -0.00001  -0.00141  -0.00135
  49        2PZ         0.00000   0.00000   0.00000   0.00050   0.00050
  50        3S          0.00014  -0.00010   0.00000   0.02131   0.02131
  51        3PX        -0.00002  -0.00003  -0.00003  -0.00063  -0.00028
  52        3PY         0.00001  -0.00003   0.00003  -0.00028  -0.00063
  53        3PZ         0.00000   0.00000   0.00000   0.00021   0.00021
  54        4S         -0.00001   0.00038   0.00000  -0.01601  -0.01601
  55        4PX         0.00003  -0.00013   0.00001   0.00269   0.00318
  56        4PY        -0.00003  -0.00013  -0.00001   0.00318   0.00269
  57        4PZ         0.00007   0.00014   0.00000  -0.00117  -0.00117
  58        5D 0        0.00001   0.00000   0.00000   0.00013   0.00013
  59        5D+1        0.00000  -0.00001   0.00000   0.00001   0.00011
  60        5D-1        0.00000  -0.00001   0.00000   0.00011   0.00001
  61        5D+2        0.00000   0.00000   0.00002   0.00007  -0.00007
  62        5D-2        0.00000   0.00003   0.00000  -0.00014  -0.00014
  63 4   Cl 1S         -0.04052   0.00822   0.00000   0.13976  -0.13977
  64        2S         -0.00052   0.00009   0.00000  -0.50298   0.50298
  65        2PX        -0.00001  -0.00001  -0.00001  -0.00135   0.00141
  66        2PY         0.00000   0.00001  -0.00001   0.00141  -0.00135
  67        2PZ         0.00000   0.00000   0.00000  -0.00050   0.00050
  68        3S          0.00014  -0.00010   0.00000  -0.02131   0.02131
  69        3PX         0.00002   0.00003   0.00003  -0.00063   0.00028
  70        3PY         0.00001  -0.00003   0.00003   0.00028  -0.00063
  71        3PZ         0.00000   0.00000   0.00000  -0.00021   0.00021
  72        4S         -0.00001   0.00038   0.00000   0.01601  -0.01601
  73        4PX        -0.00003   0.00013  -0.00001   0.00269  -0.00318
  74        4PY        -0.00003  -0.00013  -0.00001  -0.00318   0.00269
  75        4PZ         0.00007   0.00014   0.00000   0.00117  -0.00117
  76        5D 0        0.00001   0.00000   0.00000  -0.00013   0.00013
  77        5D+1        0.00000   0.00001   0.00000   0.00001  -0.00011
  78        5D-1        0.00000  -0.00001   0.00000  -0.00011   0.00001
  79        5D+2        0.00000   0.00000   0.00002  -0.00007  -0.00007
  80        5D-2        0.00000  -0.00003   0.00000  -0.00014   0.00014
  81 5   Cl 1S          0.04052   0.00822   0.00000  -0.13976   0.13977
  82        2S          0.00052   0.00009   0.00000   0.50298  -0.50298
  83        2PX        -0.00001   0.00001   0.00001  -0.00135   0.00141
  84        2PY         0.00000  -0.00001   0.00001   0.00141  -0.00135
  85        2PZ         0.00000   0.00000   0.00000   0.00050  -0.00050
  86        3S         -0.00014  -0.00010   0.00000   0.02131  -0.02131
  87        3PX         0.00002  -0.00003  -0.00003  -0.00063   0.00028
  88        3PY         0.00001   0.00003  -0.00003   0.00028  -0.00063
  89        3PZ         0.00000   0.00000   0.00000   0.00021  -0.00021
  90        4S          0.00001   0.00038   0.00000  -0.01601   0.01601
  91        4PX        -0.00003  -0.00013   0.00001   0.00269  -0.00318
  92        4PY        -0.00003   0.00013   0.00001  -0.00318   0.00269
  93        4PZ        -0.00007   0.00014   0.00000  -0.00117   0.00117
  94        5D 0       -0.00001   0.00000   0.00000   0.00013  -0.00013
  95        5D+1        0.00000  -0.00001   0.00000   0.00001  -0.00011
  96        5D-1        0.00000   0.00001   0.00000  -0.00011   0.00001
  97        5D+2        0.00000   0.00000   0.00002   0.00007   0.00007
  98        5D-2        0.00000  -0.00003   0.00000   0.00014  -0.00014
  99 6   Cl 1S          0.04052   0.00822   0.00000   0.13976   0.13977
 100        2S          0.00052   0.00009   0.00000  -0.50298  -0.50298
 101        2PX         0.00001  -0.00001  -0.00001  -0.00135  -0.00141
 102        2PY         0.00000  -0.00001   0.00001  -0.00141  -0.00135
 103        2PZ         0.00000   0.00000   0.00000  -0.00050  -0.00050
 104        3S         -0.00014  -0.00010   0.00000  -0.02131  -0.02131
 105        3PX        -0.00002   0.00003   0.00003  -0.00063  -0.00028
 106        3PY         0.00001   0.00003  -0.00003  -0.00028  -0.00063
 107        3PZ         0.00000   0.00000   0.00000  -0.00021  -0.00021
 108        4S          0.00001   0.00038   0.00000   0.01601   0.01601
 109        4PX         0.00003   0.00013  -0.00001   0.00269   0.00318
 110        4PY        -0.00003   0.00013   0.00001   0.00318   0.00269
 111        4PZ        -0.00007   0.00014   0.00000   0.00117   0.00117
 112        5D 0       -0.00001   0.00000   0.00000  -0.00013  -0.00013
 113        5D+1        0.00000   0.00001   0.00000   0.00001   0.00011
 114        5D-1        0.00000   0.00001   0.00000   0.00011   0.00001
 115        5D+2        0.00000   0.00000   0.00002  -0.00007   0.00007
 116        5D-2        0.00000   0.00003   0.00000   0.00014   0.00014
 117 7   Cl 1S          0.70228   0.49806   0.49834   0.00000  -0.04151
 118        2S          0.00893   0.00632   0.00636   0.00000   0.14948
 119        2PX         0.00000   0.00000   0.00000   0.00005   0.00000
 120        2PY        -0.00004  -0.00003  -0.00005   0.00000  -0.00059
 121        2PZ        -0.00001  -0.00001  -0.00001   0.00000  -0.00016
 122        3S         -0.00380  -0.00271  -0.00250   0.00000   0.00685
 123        3PX         0.00000   0.00000   0.00000  -0.00027   0.00000
 124        3PY         0.00013   0.00009   0.00019   0.00000  -0.00018
 125        3PZ         0.00004   0.00004   0.00002   0.00000  -0.00006
 126        4S          0.00405   0.00325   0.00185   0.00000  -0.00627
 127        4PX         0.00000   0.00000   0.00000   0.00012   0.00000
 128        4PY        -0.00113  -0.00081  -0.00061   0.00000   0.00165
 129        4PZ        -0.00029  -0.00037  -0.00009   0.00000   0.00092
 130        5D 0       -0.00005   0.00000  -0.00004   0.00000   0.00000
 131        5D+1        0.00000   0.00000   0.00000   0.00003   0.00000
 132        5D-1        0.00003   0.00005   0.00002   0.00000  -0.00007
 133        5D+2       -0.00009  -0.00004  -0.00003   0.00000   0.00009
 134        5D-2        0.00000   0.00000   0.00000   0.00004   0.00000
 135 8   Cl 1S          0.00000   0.49827  -0.49814   0.04151   0.00000
 136        2S          0.00000   0.00633  -0.00635  -0.14948   0.00000
 137        2PX         0.00000   0.00003  -0.00005  -0.00059   0.00000
 138        2PY        -0.00001   0.00000   0.00000   0.00000   0.00005
 139        2PZ         0.00000  -0.00001   0.00001   0.00016   0.00000
 140        3S          0.00000  -0.00271   0.00250  -0.00685   0.00000
 141        3PX         0.00000  -0.00009   0.00019  -0.00018   0.00000
 142        3PY         0.00006   0.00000   0.00000   0.00000  -0.00027
 143        3PZ         0.00000   0.00004  -0.00002   0.00006   0.00000
 144        4S          0.00000   0.00325  -0.00185   0.00627   0.00000
 145        4PX         0.00000   0.00081  -0.00061   0.00165   0.00000
 146        4PY         0.00012   0.00000   0.00000   0.00000   0.00012
 147        4PZ         0.00000  -0.00037   0.00009  -0.00092   0.00000
 148        5D 0        0.00000   0.00000   0.00004   0.00000   0.00000
 149        5D+1        0.00000  -0.00005   0.00002  -0.00007   0.00000
 150        5D-1       -0.00002   0.00000   0.00000   0.00000   0.00003
 151        5D+2        0.00000   0.00004  -0.00003   0.00009   0.00000
 152        5D-2        0.00003   0.00000   0.00000   0.00000  -0.00004
 153 9   Cl 1S          0.00000   0.49827  -0.49814  -0.04151   0.00000
 154        2S          0.00000   0.00633  -0.00635   0.14948   0.00000
 155        2PX         0.00000  -0.00003   0.00005  -0.00059   0.00000
 156        2PY        -0.00001   0.00000   0.00000   0.00000   0.00005
 157        2PZ         0.00000  -0.00001   0.00001  -0.00016   0.00000
 158        3S          0.00000  -0.00271   0.00250   0.00685   0.00000
 159        3PX         0.00000   0.00009  -0.00019  -0.00018   0.00000
 160        3PY         0.00006   0.00000   0.00000   0.00000  -0.00027
 161        3PZ         0.00000   0.00004  -0.00002  -0.00006   0.00000
 162        4S          0.00000   0.00325  -0.00185  -0.00627   0.00000
 163        4PX         0.00000  -0.00081   0.00061   0.00165   0.00000
 164        4PY         0.00012   0.00000   0.00000   0.00000   0.00012
 165        4PZ         0.00000  -0.00037   0.00009   0.00092   0.00000
 166        5D 0        0.00000   0.00000   0.00004   0.00000   0.00000
 167        5D+1        0.00000   0.00005  -0.00002  -0.00007   0.00000
 168        5D-1       -0.00002   0.00000   0.00000   0.00000   0.00003
 169        5D+2        0.00000   0.00004  -0.00003  -0.00009   0.00000
 170        5D-2       -0.00003   0.00000   0.00000   0.00000   0.00004
 171 10  Cl 1S         -0.70228   0.49806   0.49834   0.00000   0.04151
 172        2S         -0.00893   0.00632   0.00636   0.00000  -0.14948
 173        2PX         0.00000   0.00000   0.00000   0.00005   0.00000
 174        2PY        -0.00004   0.00003   0.00005   0.00000  -0.00059
 175        2PZ         0.00001  -0.00001  -0.00001   0.00000   0.00016
 176        3S          0.00380  -0.00271  -0.00250   0.00000  -0.00685
 177        3PX         0.00000   0.00000   0.00000  -0.00027   0.00000
 178        3PY         0.00013  -0.00009  -0.00019   0.00000  -0.00018
 179        3PZ        -0.00004   0.00004   0.00002   0.00000   0.00006
 180        4S         -0.00405   0.00325   0.00185   0.00000   0.00627
 181        4PX         0.00000   0.00000   0.00000   0.00012   0.00000
 182        4PY        -0.00113   0.00081   0.00061   0.00000   0.00165
 183        4PZ         0.00029  -0.00037  -0.00009   0.00000  -0.00092
 184        5D 0        0.00005   0.00000  -0.00004   0.00000   0.00000
 185        5D+1        0.00000   0.00000   0.00000   0.00003   0.00000
 186        5D-1        0.00003  -0.00005  -0.00002   0.00000  -0.00007
 187        5D+2        0.00009  -0.00004  -0.00003   0.00000  -0.00009
 188        5D-2        0.00000   0.00000   0.00000  -0.00004   0.00000
                          11        12        13        14        15
                        (A1)--O   (B1)--O   (E)--O    (E)--O    (A1)--O
     Eigenvalues --    -9.50463  -9.50461  -9.50459  -9.50459  -9.50457
   1 1   Ir 1S         -0.00063   0.00000   0.00000   0.00000  -0.00113
   2        2S          0.00016   0.00000   0.00000   0.00000  -0.00169
   3        3S         -0.03087   0.00000   0.00000   0.00000   0.04086
   4        4PX         0.00000   0.00000  -0.00109   0.00000   0.00000
   5        4PY         0.00000   0.00000   0.00000   0.00109   0.00000
   6        4PZ         0.00124   0.00000   0.00000   0.00000  -0.00072
   7        5PX         0.00000   0.00000  -0.01394   0.00000   0.00000
   8        5PY         0.00000   0.00000   0.00000   0.01394   0.00000
   9        5PZ         0.01791   0.00000   0.00000   0.00000  -0.00635
  10        6PX         0.00000   0.00000  -0.00509   0.00000   0.00000
  11        6PY         0.00000   0.00000   0.00000   0.00509   0.00000
  12        6PZ         0.00037   0.00000   0.00000   0.00000  -0.00355
  13        7D 0        0.00054   0.00000   0.00000   0.00000   0.00042
  14        7D+1        0.00000   0.00000   0.00010   0.00000   0.00000
  15        7D-1        0.00000   0.00000   0.00000  -0.00010   0.00000
  16        7D+2        0.00000   0.00000   0.00000   0.00000   0.00000
  17        7D-2        0.00000  -0.00041   0.00000   0.00000   0.00000
  18        8D 0       -0.00523   0.00000   0.00000   0.00000  -0.00148
  19        8D+1        0.00000   0.00000  -0.00187   0.00000   0.00000
  20        8D-1        0.00000   0.00000   0.00000   0.00187   0.00000
  21        8D+2        0.00000   0.00000   0.00000   0.00000   0.00000
  22        8D-2        0.00000   0.00120   0.00000   0.00000   0.00000
  23 2   Ir 1S         -0.00073   0.00000   0.00000   0.00000  -0.00108
  24        2S         -0.00158   0.00000   0.00000   0.00000  -0.00062
  25        3S          0.05035   0.00000   0.00000   0.00000  -0.00932
  26        4PX         0.00000   0.00000   0.00042   0.00000   0.00000
  27        4PY         0.00000   0.00000   0.00000  -0.00042   0.00000
  28        4PZ         0.00120   0.00000   0.00000   0.00000  -0.00079
  29        5PX         0.00000   0.00000   0.00291   0.00000   0.00000
  30        5PY         0.00000   0.00000   0.00000  -0.00291   0.00000
  31        5PZ         0.01369   0.00000   0.00000   0.00000  -0.01316
  32        6PX         0.00000   0.00000   0.00232   0.00000   0.00000
  33        6PY         0.00000   0.00000   0.00000  -0.00232   0.00000
  34        6PZ         0.00333   0.00000   0.00000   0.00000   0.00126
  35        7D 0        0.00013   0.00000   0.00000   0.00000   0.00067
  36        7D+1        0.00000   0.00000   0.00015   0.00000   0.00000
  37        7D-1        0.00000   0.00000   0.00000  -0.00015   0.00000
  38        7D+2        0.00000   0.00000   0.00000   0.00000   0.00000
  39        7D-2        0.00000   0.00038   0.00000   0.00000   0.00000
  40        8D 0        0.00102   0.00000   0.00000   0.00000  -0.00533
  41        8D+1        0.00000   0.00000   0.00015   0.00000   0.00000
  42        8D-1        0.00000   0.00000   0.00000  -0.00015   0.00000
  43        8D+2        0.00000   0.00000   0.00000   0.00000   0.00000
  44        8D-2        0.00000   0.00174   0.00000   0.00000   0.00000
  45 3   Cl 1S         -0.13901  -0.14284  -0.02937   0.02937  -0.03281
  46        2S          0.50020   0.51385   0.10563  -0.10562   0.11811
  47        2PX        -0.00135  -0.00134  -0.00030   0.00027  -0.00035
  48        2PY        -0.00135  -0.00134  -0.00027   0.00030  -0.00035
  49        2PZ         0.00050   0.00052   0.00010  -0.00010   0.00013
  50        3S          0.02085   0.02069   0.00408  -0.00408   0.00511
  51        3PX        -0.00054  -0.00082  -0.00003   0.00017   0.00003
  52        3PY        -0.00054  -0.00082  -0.00017   0.00003   0.00003
  53        3PZ         0.00022   0.00014   0.00005  -0.00005   0.00002
  54        4S         -0.01610  -0.01078  -0.00219   0.00219  -0.00536
  55        4PX         0.00253   0.00229   0.00021  -0.00056   0.00132
  56        4PY         0.00253   0.00229   0.00056  -0.00021   0.00132
  57        4PZ        -0.00157  -0.00049   0.00019  -0.00019  -0.00091
  58        5D 0       -0.00004   0.00016   0.00006  -0.00006   0.00003
  59        5D+1        0.00012   0.00004  -0.00002   0.00001   0.00007
  60        5D-1        0.00012   0.00004  -0.00001   0.00002   0.00007
  61        5D+2        0.00000   0.00000   0.00000   0.00000   0.00000
  62        5D-2        0.00001   0.00003   0.00001  -0.00001  -0.00017
  63 4   Cl 1S         -0.13901   0.14284   0.02937   0.02937  -0.03281
  64        2S          0.50020  -0.51385  -0.10563  -0.10562   0.11811
  65        2PX         0.00135  -0.00134  -0.00030  -0.00027   0.00035
  66        2PY        -0.00135   0.00134   0.00027   0.00030  -0.00035
  67        2PZ         0.00050  -0.00052  -0.00010  -0.00010   0.00013
  68        3S          0.02085  -0.02069  -0.00408  -0.00408   0.00511
  69        3PX         0.00054  -0.00082  -0.00003  -0.00017  -0.00003
  70        3PY        -0.00054   0.00082   0.00017   0.00003   0.00003
  71        3PZ         0.00022  -0.00014  -0.00005  -0.00005   0.00002
  72        4S         -0.01610   0.01078   0.00219   0.00219  -0.00536
  73        4PX        -0.00253   0.00229   0.00021   0.00056  -0.00132
  74        4PY         0.00253  -0.00229  -0.00056  -0.00021   0.00132
  75        4PZ        -0.00157   0.00049  -0.00019  -0.00019  -0.00091
  76        5D 0       -0.00004  -0.00016  -0.00006  -0.00006   0.00003
  77        5D+1       -0.00012   0.00004  -0.00002  -0.00001  -0.00007
  78        5D-1        0.00012  -0.00004   0.00001   0.00002   0.00007
  79        5D+2        0.00000   0.00000   0.00000   0.00000   0.00000
  80        5D-2       -0.00001   0.00003   0.00001   0.00001   0.00017
  81 5   Cl 1S         -0.13901   0.14284  -0.02937  -0.02937  -0.03281
  82        2S          0.50020  -0.51385   0.10563   0.10562   0.11811
  83        2PX        -0.00135   0.00134  -0.00030  -0.00027  -0.00035
  84        2PY         0.00135  -0.00134   0.00027   0.00030   0.00035
  85        2PZ         0.00050  -0.00052   0.00010   0.00010   0.00013
  86        3S          0.02085  -0.02069   0.00408   0.00408   0.00511
  87        3PX        -0.00054   0.00082  -0.00003  -0.00017   0.00003
  88        3PY         0.00054  -0.00082   0.00017   0.00003  -0.00003
  89        3PZ         0.00022  -0.00014   0.00005   0.00005   0.00002
  90        4S         -0.01610   0.01078  -0.00219  -0.00219  -0.00536
  91        4PX         0.00253  -0.00229   0.00021   0.00056   0.00132
  92        4PY        -0.00253   0.00229  -0.00056  -0.00021  -0.00132
[...]
  69        3PX         1.18021
  70        3PY         1.18021
  71        3PZ         1.19262
  72        4S          0.46598
  73        4PX         0.45655
  74        4PY         0.45655
  75        4PZ         0.52406
  76        5D 0        0.00233
  77        5D+1        0.00243
  78        5D-1        0.00243
  79        5D+2        0.00416
  80        5D-2        0.00630
  81 5   Cl 1S          1.99965
  82        2S          1.99744
  83        2PX         1.99070
  84        2PY         1.99070
  85        2PZ         1.99097
  86        3S          1.44444
  87        3PX         1.18021
  88        3PY         1.18021
  89        3PZ         1.19262
  90        4S          0.46598
  91        4PX         0.45655
  92        4PY         0.45655
  93        4PZ         0.52406
  94        5D 0        0.00233
  95        5D+1        0.00243
  96        5D-1        0.00243
  97        5D+2        0.00416
  98        5D-2        0.00630
  99 6   Cl 1S          1.99965
 100        2S          1.99744
 101        2PX         1.99070
 102        2PY         1.99070
 103        2PZ         1.99097
 104        3S          1.44444
 105        3PX         1.18021
 106        3PY         1.18021
 107        3PZ         1.19262
 108        4S          0.46598
 109        4PX         0.45655
 110        4PY         0.45655
 111        4PZ         0.52406
 112        5D 0        0.00233
 113        5D+1        0.00243
 114        5D-1        0.00243
 115        5D+2        0.00416
 116        5D-2        0.00630
 117 7   Cl 1S          1.99965
 118        2S          1.99744
 119        2PX         1.99255
 120        2PY         1.98884
 121        2PZ         1.99097
 122        3S          1.44439
 123        3PX         1.35883
 124        3PY         1.00172
 125        3PZ         1.19267
 126        4S          0.46597
 127        4PX         0.59162
 128        4PY         0.32118
 129        4PZ         0.52405
 130        5D 0        0.00233
 131        5D+1        0.00049
 132        5D-1        0.00438
 133        5D+2        0.00632
 134        5D-2        0.00416
 135 8   Cl 1S          1.99965
 136        2S          1.99744
 137        2PX         1.98884
 138        2PY         1.99255
 139        2PZ         1.99097
 140        3S          1.44439
 141        3PX         1.00172
 142        3PY         1.35883
 143        3PZ         1.19267
 144        4S          0.46597
 145        4PX         0.32118
 146        4PY         0.59162
 147        4PZ         0.52405
 148        5D 0        0.00233
 149        5D+1        0.00438
 150        5D-1        0.00049
 151        5D+2        0.00632
 152        5D-2        0.00416
 153 9   Cl 1S          1.99965
 154        2S          1.99744
 155        2PX         1.98884
 156        2PY         1.99255
 157        2PZ         1.99097
 158        3S          1.44439
 159        3PX         1.00172
 160        3PY         1.35883
 161        3PZ         1.19267
 162        4S          0.46597
 163        4PX         0.32118
 164        4PY         0.59162
 165        4PZ         0.52405
 166        5D 0        0.00233
 167        5D+1        0.00438
 168        5D-1        0.00049
 169        5D+2        0.00632
 170        5D-2        0.00416
 171 10  Cl 1S          1.99965
 172        2S          1.99744
 173        2PX         1.99255
 174        2PY         1.98884
 175        2PZ         1.99097
 176        3S          1.44439
 177        3PX         1.35883
 178        3PY         1.00172
 179        3PZ         1.19267
 180        4S          0.46597
 181        4PX         0.59162
 182        4PY         0.32118
 183        4PZ         0.52405
 184        5D 0        0.00233
 185        5D+1        0.00049
 186        5D-1        0.00438
 187        5D+2        0.00632
 188        5D-2        0.00416
          Condensed to atoms (all electrons):
              1          2          3          4          5          6
     1  Ir  16.510479   0.040684  -0.012663  -0.012663  -0.012663  -0.012663
     2  Ir   0.040684  16.507422   0.237761   0.237761   0.237761   0.237761
     3  Cl  -0.012663   0.237761  16.757590  -0.050090  -0.050090  -0.002635
     4  Cl  -0.012663   0.237761  -0.050090  16.757590  -0.002635  -0.050090
     5  Cl  -0.012663   0.237761  -0.050090  -0.002635  16.757590  -0.050090
     6  Cl  -0.012663   0.237761  -0.002635  -0.050090  -0.050090  16.757590
     7  Cl   0.237596  -0.012792   0.003848   0.003848   0.000080   0.000080
     8  Cl   0.237596  -0.012792   0.000080   0.003848   0.000080   0.003848
     9  Cl   0.237596  -0.012792   0.003848   0.000080   0.003848   0.000080
    10  Cl   0.237596  -0.012792   0.000080   0.000080   0.003848   0.003848
              7          8          9         10
     1  Ir   0.237596   0.237596   0.237596   0.237596
     2  Ir  -0.012792  -0.012792  -0.012792  -0.012792
     3  Cl   0.003848   0.000080   0.003848   0.000080
     4  Cl   0.003848   0.003848   0.000080   0.000080
     5  Cl   0.000080   0.000080   0.003848   0.003848
     6  Cl   0.000080   0.003848   0.000080   0.003848
     7  Cl  16.757780  -0.050121  -0.050121  -0.002648
     8  Cl  -0.050121  16.757780  -0.002648  -0.050121
     9  Cl  -0.050121  -0.002648  16.757780  -0.050121
    10  Cl  -0.002648  -0.050121  -0.050121  16.757780
 Mulliken atomic charges:
              1
     1  Ir  -0.450895
     2  Ir  -0.447983
     3  Cl   0.112270
     4  Cl   0.112270
     5  Cl   0.112270
     6  Cl   0.112270
     7  Cl   0.112449
     8  Cl   0.112449
     9  Cl   0.112449
    10  Cl   0.112449
 Sum of Mulliken atomic charges =   0.00000
 Mulliken charges with hydrogens summed into heavy atoms:
              1
     1  Ir  -0.450895
     2  Ir  -0.447983
     3  Cl   0.112270
     4  Cl   0.112270
     5  Cl   0.112270
     6  Cl   0.112270
     7  Cl   0.112449
     8  Cl   0.112449
     9  Cl   0.112449
    10  Cl   0.112449
 Sum of Mulliken charges with hydrogens summed into heavy atoms =   0.00000
 Electronic spatial extent (au):  <R**2>=           4222.3054
 Charge=              0.0000 electrons
 Dipole moment (field-independent basis, Debye):
    X=              0.0000    Y=              0.0000    Z=             -0.0012  Tot=              0.0012
 Quadrupole moment (field-independent basis, Debye-Ang):
   XX=           -151.6144   YY=           -151.6144   ZZ=           -148.4847
   XY=              0.0000   XZ=              0.0000   YZ=              0.0000
 Traceless Quadrupole moment (field-independent basis, Debye-Ang):
   XX=             -1.0432   YY=             -1.0432   ZZ=              2.0865
   XY=              0.0000   XZ=              0.0000   YZ=              0.0000
 Octapole moment (field-independent basis, Debye-Ang**2):
  XXX=              0.0000  YYY=              0.0000  ZZZ=              0.0839  XYY=              0.0000
  XXY=              0.0000  XXZ=              0.0095  XZZ=              0.0000  YZZ=              0.0000
  YYZ=              0.0095  XYZ=              0.0000
 Hexadecapole moment (field-independent basis, Debye-Ang**3):
 XXXX=          -1607.8831 YYYY=          -1607.8831 ZZZZ=          -2185.2617 XXXY=              0.0000
 XXXZ=              0.0000 YYYX=              0.0000 YYYZ=              0.0000 ZZZX=              0.0000
 ZZZY=              0.0000 XXYY=           -535.9504 XXZZ=           -641.2013 YYZZ=           -641.2013
 XXYZ=              0.0000 YYXZ=              0.0000 ZZXY=              0.0000
 N-N= 2.034469853365D+03 E-N=-1.324360643768D+04  KE= 3.740251124988D+03
 Symmetry A1   KE= 1.311572397362D+03
 Symmetry A2   KE= 5.583777499309D+02
 Symmetry B1   KE= 9.351504888478D+02
 Symmetry B2   KE= 9.351504888478D+02
 Orbital energies and kinetic energies (alpha):
                                 1                 2
   1         (E)--O         -101.573768        137.060085
   2         (E)--O         -101.573768        137.060085
   3         (A1)--O        -101.573765        137.060616
   4         (B1)--O        -101.573757        137.061841
   5         (E)--O         -101.573707        137.060320
   6         (E)--O         -101.573707        137.060320
   7         (A1)--O        -101.573704        137.060618
   8         (B2)--O        -101.573696        137.061840
   9         (E)--O           -9.504646         21.705223
  10         (E)--O           -9.504646         21.705223
  11         (A1)--O          -9.504628         21.707751
  12         (B1)--O          -9.504612         21.710057
  13         (E)--O           -9.504593         21.706531
  14         (E)--O           -9.504593         21.706531
  15         (A1)--O          -9.504574         21.708842
  16         (B2)--O          -9.504563         21.710050
  17         (B1)--O          -7.266529         20.532036
  18         (A1)--O          -7.266529         20.534373
  19         (E)--O           -7.266518         20.535042
  20         (E)--O           -7.266518         20.535042
  21         (B2)--O          -7.266479         20.531994
  22         (A1)--O          -7.266478         20.534419
  23         (E)--O           -7.266467         20.535034
  24         (E)--O           -7.266467         20.535034
  25         (A1)--O          -7.260548         20.542134
  26         (E)--O           -7.260537         20.543688
  27         (E)--O           -7.260537         20.543688
  28         (B1)--O          -7.260527         20.546539
  29         (A1)--O          -7.260480         20.547396
  30         (B2)--O          -7.260478         20.546527
  31         (E)--O           -7.260462         20.550634
  32         (E)--O           -7.260462         20.550634
  33         (E)--O           -7.256649         20.548068
  34         (E)--O           -7.256649         20.548068
  35         (A2)--O          -7.256646         20.547540
  36         (B2)--O          -7.256627         20.553337
  37         (E)--O           -7.256593         20.549937
  38         (E)--O           -7.256593         20.549937
  39         (A2)--O          -7.256592         20.548902
  40         (B1)--O          -7.256577         20.553328
  41         (A1)--O          -3.891450          1.544240
  42         (A1)--O          -3.886100          1.571454
  43         (A1)--O          -2.330872          2.114154
  44         (E)--O           -2.285730          2.178994
  45         (E)--O           -2.285730          2.178994
  46         (A1)--O          -2.280466          2.280021
  47         (E)--O           -2.279707          2.203672
  48         (E)--O           -2.279707          2.203672
  49         (A1)--O          -0.879279          2.831805
  50         (A1)--O          -0.870993          2.940638
  51         (E)--O           -0.849308          3.142982
  52         (E)--O           -0.849308          3.142982
  53         (B2)--O          -0.849296          3.165882
  54         (B1)--O          -0.849258          3.166196
  55         (E)--O           -0.845330          3.191379
  56         (E)--O           -0.845330          3.191379
  57         (A1)--O          -0.545878          2.015407
  58         (E)--O           -0.523210          1.897760
  59         (E)--O           -0.523210          1.897760
  60         (B2)--O          -0.504799          2.202562
  61         (B1)--O          -0.504749          2.200980
  62         (A1)--O          -0.502532          1.875024
  63         (A1)--O          -0.486288          2.161058
  64         (B1)--O          -0.481332          1.984261
  65         (B2)--O          -0.481273          1.983338
  66         (E)--O           -0.447224          2.207648
  67         (E)--O           -0.447224          2.207648
  68         (E)--O           -0.412029          2.168565
  69         (E)--O           -0.412029          2.168565
  70         (A1)--O          -0.403645          1.953611
  71         (A1)--O          -0.391632          2.076495
  72         (E)--O           -0.362866          2.436211
  73         (E)--O           -0.362866          2.436211
  74         (E)--O           -0.354809          2.417283
  75         (E)--O           -0.354809          2.417283
  76         (E)--O           -0.349691          2.472410
  77         (E)--O           -0.349691          2.472410
  78         (B2)--O          -0.349270          2.474160
  79         (B1)--O          -0.349269          2.474170
  80         (E)--O           -0.335107          2.463779
  81         (E)--O           -0.335107          2.463778
  82         (B2)--O          -0.326107          2.496453
  83         (B1)--O          -0.326020          2.496738
  84         (A2)--O          -0.325650          2.648478
  85         (A2)--O          -0.319993          2.717809
  86         (E)--V           -0.247048          2.752040
  87         (E)--V           -0.247048          2.752040
  88         (A1)--V          -0.232998          2.588759
  89         (B1)--V          -0.157137          3.003217
  90         (B2)--V          -0.156938          3.003570
  91         (A1)--V          -0.098090          2.045376
  92         (A1)--V           0.008350          0.947160
  93         (A1)--V           0.022224          0.947622
  94         (E)--V            0.035965          0.606287
  95         (E)--V            0.035965          0.606287
  96         (E)--V            0.055953          0.423982
  97         (E)--V            0.055953          0.423982
  98         (A1)--V           0.060618          1.446419
  99         (A1)--V           0.074918          0.690379
 100         (E)--V            0.151542          1.650517
 101         (E)--V            0.151542          1.650517
 102         (E)--V            0.243777          1.286726
 103         (E)--V            0.243777          1.286726
 104         (A1)--V           0.275255          1.642800
 105         (A1)--V           0.295333          2.415699
 106         (B2)--V           0.330013          1.999331
 107         (B1)--V           0.330026          2.000594
 108         (B1)--V           0.335460          2.032171
 109         (B2)--V           0.335469          2.033435
 110         (E)--V            0.359176          2.243744
 111         (E)--V            0.359176          2.243744
 112         (B1)--V           0.368125          2.492157
 113         (B2)--V           0.368141          2.491789
 114         (E)--V            0.379796          1.845231
 115         (E)--V            0.379796          1.845231
 116         (A1)--V           0.382554          1.886137
 117         (A1)--V           0.407104          2.417876
 118         (E)--V            0.411880          2.332697
 119         (E)--V            0.411880          2.332697
 120         (E)--V            0.433848          2.654863
 121         (E)--V            0.433848          2.654863
 122         (E)--V            0.458631          2.596608
 123         (E)--V            0.458631          2.596608
 124         (A1)--V           0.461729          2.800827
 125         (A1)--V           0.499174          2.672357
 126         (E)--V            0.505905          2.676001
 127         (E)--V            0.505905          2.676001
 128         (B1)--V           0.510567          2.616306
 129         (B2)--V           0.510712          2.617060
 130         (A2)--V           0.511032          2.593976
 131         (B2)--V           0.547652          2.663916
 132         (B1)--V           0.547833          2.664004
 133         (E)--V            0.561811          2.682109
 134         (E)--V            0.561811          2.682109
 135         (A2)--V           0.567322          2.646451
 136         (E)--V            0.575162          2.719998
 137         (E)--V            0.575162          2.719998
 138         (A1)--V           0.611218          2.900812
 139         (E)--V            0.642019          3.080434
 140         (E)--V            0.642019          3.080434
 141         (E)--V            0.677464          2.781236
 142         (E)--V            0.677464          2.781236
 143         (A1)--V           0.690315          2.730634
 144         (B1)--V           0.691687          2.859304
 145         (B2)--V           0.692060          2.858989
 146         (E)--V            0.820688          2.655779
 147         (E)--V            0.820688          2.655779
 148         (B2)--V           0.820741          2.645759
 149         (B1)--V           0.820795          2.645838
 150         (A2)--V           0.825425          2.630047
 151         (E)--V            0.827411          2.644570
 152         (E)--V            0.827411          2.644570
 153         (A2)--V           0.828819          2.625862
 154         (A1)--V           0.833617          2.756596
 155         (E)--V            0.836048          2.647224
 156         (E)--V            0.836048          2.647224
 157         (B2)--V           0.837253          2.655085
 158         (B1)--V           0.837398          2.655054
 159         (E)--V            0.843888          2.708110
 160         (E)--V            0.843888          2.708110
 161         (A1)--V           0.848807          2.740817
 162         (A1)--V           0.848924          2.713692
 163         (A2)--V           0.869551          2.758140
 164         (E)--V            0.882909          2.827805
 165         (E)--V            0.882909          2.827805
 166         (E)--V            0.883176          2.881860
 167         (E)--V            0.883176          2.881860
 168         (A2)--V           0.890484          2.843815
 169         (A1)--V           0.922979          2.778206
 170         (B1)--V           0.938835          3.131189
 171         (B2)--V           0.938890          3.131430
 172         (E)--V            0.998619          2.948381
 173         (E)--V            0.998619          2.948381
 174         (A1)--V           1.034252          2.729864
 175         (A1)--V           1.105408          2.907756
 176         (E)--V            1.106062          2.754921
 177         (E)--V            1.106062          2.754921
 178         (B1)--V           1.113141          2.949766
 179         (B2)--V           1.113407          2.950569
 180         (E)--V            1.165247          2.882749
 181         (E)--V            1.165247          2.882749
 182         (E)--V            1.192091          2.989771
 183         (E)--V            1.192091          2.989771
 184         (A1)--V           1.235550          3.146979
 185         (B1)--V           1.309317          3.115792
 186         (B2)--V           1.309628          3.116512
 187         (A1)--V           5.795887          2.515837
 188         (A1)--V          10.325311          3.442415
 Total kinetic energy from orbitals= 3.740251124988D+03
 No NMR shielding tensors so no spin-rotation constants.
 Leave Link  601 at Tue May  5 13:04:03 2015, MaxMem= 1073741824 cpu:       2.6
 (Enter /usr/g09/l9999.exe)
 1\1\GINC-LSQC07\SP\RB3LYP\GenECP\Cl8Ir2\LITAO\05-May-2015\0\\#p b3lyp/
 genecp pop=full\\Title Card Required\\0,1\Ir,0,0.,0.,0.\Ir,0,0.,0.,2.2
 4015797\Cl,0,0.84967788,2.05130385,2.782\Cl,0,2.05130385,-0.84967788,2
 .782\Cl,0,-2.05130385,0.84967788,2.782\Cl,0,-0.84967788,-2.05130385,2.
 782\Cl,0,2.05130385,0.84967788,-0.54\Cl,0,0.84967788,-2.05130385,-0.54
 \Cl,0,-0.84967788,2.05130385,-0.54\Cl,0,-2.05130385,-0.84967788,-0.54\
 \Version=EM64L-G09RevA.01\State=1-A1\HF=-3891.0082808\RMSD=9.552e-09\D
 ipole=0.,0.,0.0004647\Quadrupole=-0.7756215,-0.7756215,1.551243,0.,0.,
 0.\PG=C04V [C4(Ir1Ir1),2SGV(Cl2),2SGD(Cl2)]\\@


 THE ONLY EXISTING THINGS ARE ATOMS AND EMPTY SPACE;
 ALL ELSE IS MERE OPINION. -- DEMOCRITUS OF ABDERA D. 370 B.C.
 EXPERIMENTS ARE THE ONLY MEANS OF KNOWLEDGE AT OUR DISPOSAL
 THE REST IS POETRY, IMAGINATION. -- MAX PLANCK
 Job cpu time:  0 days  0 hours  1 minutes 52.2 seconds.
 File lengths (MBytes):  RWF=     19 Int=      0 D2E=      0 Chk=      2 Scr=      1
 Normal termination of Gaussian 09 at Tue May  5 13:04:03 2015.
