 Entering Gaussian System, Link 0=g09
 Input=mo2cl8-45.gjf
 Output=mo2cl8-45.log
 Initial command:
 /usr/g09/l1.exe /scratch/litao/gaussian/Gau-2331.inp -scrdir=/scratch/litao/gaussian/
 Entering Link 1 = /usr/g09/l1.exe PID=      2332.
  
 Copyright (c) 1988,1990,1992,1993,1995,1998,2003,2009, Gaussian, Inc.
                  All Rights Reserved.
  
 This is part of the Gaussian(R) 09 program.  It is based on
 the Gaussian(R) 03 system (copyright 2003, Gaussian, Inc.),
 the Gaussian(R) 98 system (copyright 1998, Gaussian, Inc.),
 the Gaussian(R) 94 system (copyright 1995, Gaussian, Inc.),
 the Gaussian 92(TM) system (copyright 1992, Gaussian, Inc.),
 the Gaussian 90(TM) system (copyright 1990, Gaussian, Inc.),
 the Gaussian 88(TM) system (copyright 1988, Gaussian, Inc.),
 the Gaussian 86(TM) system (copyright 1986, Carnegie Mellon
 University), and the Gaussian 82(TM) system (copyright 1983,
 Carnegie Mellon University). Gaussian is a federally registered
 trademark of Gaussian, Inc.
  
 This software contains proprietary and confidential information,
 including trade secrets, belonging to Gaussian, Inc.
  
 This software is provided under written license and may be
 used, copied, transmitted, or stored only in accord with that
 written license.
  
 The following legend is applicable only to US Government
 contracts under FAR:
  
                    RESTRICTED RIGHTS LEGEND
  
 Use, reproduction and disclosure by the US Government is
 subject to restrictions as set forth in subparagraphs (a)
 and (c) of the Commercial Computer Software - Restricted
 Rights clause in FAR 52.227-19.
  
 Gaussian, Inc.
 340 Quinnipiac St., Bldg. 40, Wallingford CT 06492
  
  
 ---------------------------------------------------------------
 Warning -- This program may not be used in any manner that
 competes with the business of Gaussian, Inc. or will provide
 assistance to any competitor of Gaussian, Inc.  The licensee
 of this program is prohibited from giving any competitor of
 Gaussian, Inc. access to this program.  By using this program,
 the user acknowledges that Gaussian, Inc. is engaged in the
 business of creating and licensing software in the field of
 computational chemistry and represents and warrants to the
 licensee that it is not a competitor of Gaussian, Inc. and that
 it will not use this program in any manner prohibited above.
 ---------------------------------------------------------------
  

 Cite this work as:
 Gaussian 09, Revision A.01,
 M. J. Frisch, G. W. Trucks, H. B. Schlegel, G. E. Scuseria, 
 M. A. Robb, J. R. Cheeseman, G. Scalmani, V. Barone, B. Mennucci, 
 G. A. Petersson, H. Nakatsuji, M. Caricato, X. Li, H. P. Hratchian, 
 A. F. Izmaylov, J. Bloino, G. Zheng, J. L. Sonnenberg, M. Hada, 
 M. Ehara, K. Toyota, R. Fukuda, J. Hasegawa, M. Ishida, T. Nakajima, 
 Y. Honda, O. Kitao, H. Nakai, T. Vreven, J. A. Montgomery, Jr., 
 J. E. Peralta, F. Ogliaro, M. Bearpark, J. J. Heyd, E. Brothers, 
 K. N. Kudin, V. N. Staroverov, R. Kobayashi, J. Normand, 
 K. Raghavachari, A. Rendell, J. C. Burant, S. S. Iyengar, J. Tomasi, 
 M. Cossi, N. Rega, J. M. Millam, M. Klene, J. E. Knox, J. B. Cross, 
 V. Bakken, C. Adamo, J. Jaramillo, R. Gomperts, R. E. Stratmann, 
 O. Yazyev, A. J. Austin, R. Cammi, C. Pomelli, J. W. Ochterski, 
 R. L. Martin, K. Morokuma, V. G. Zakrzewski, G. A. Voth, 
 P. Salvador, J. J. Dannenberg, S. Dapprich, A. D. Daniels, 
 O. Farkas, J. B. Foresman, J. V. Ortiz, J. Cioslowski, 
 and D. J. Fox, Gaussian, Inc., Wallingford CT, 2009.
 
 ******************************************
 Gaussian 09:  EM64L-G09RevA.01  8-May-2009
                 5-May-2015 
 ******************************************
 %nprocshared=8
 Will use up to    8 processors via shared memory.
 %mem=8GB
 %chk=mo2cl8-45.chk
 ------------------------
 #p b3lyp/genecp pop=full
 ------------------------
 1/38=1/1;
 2/12=2,17=6,18=5,40=1/2;
 3/5=7,11=2,16=1,17=8,25=1,30=1,74=-5/1,2,3;
 4//1;
 5/5=2,38=5/2;
 6/7=3,28=1/1;
 99/5=1,9=1/99;
 Leave Link    1 at Tue May  5 12:47:01 2015, MaxMem= 1073741824 cpu:       0.2
 (Enter /usr/g09/l101.exe)
 -------------------
 Title Card Required
 -------------------
 Symbolic Z-matrix:
 Charge = -2 Multiplicity = 1
 Mo                    0.        0.        0. 
 Mo                    0.        0.        2.24016 
 Cl                    0.84968   2.0513    2.782 
 Cl                    2.0513   -0.84968   2.782 
 Cl                   -2.0513    0.84968   2.782 
 Cl                   -0.84968  -2.0513    2.782 
 Cl                    2.0513    0.84968  -0.54 
 Cl                    0.84968  -2.0513   -0.54 
 Cl                   -0.84968   2.0513   -0.54 
 Cl                   -2.0513   -0.84968  -0.54 
 
 NAtoms=     10 NQM=     10 NQMF=      0 NMic=      0 NMicF=      0 NTot=     10.
                    Isotopes and Nuclear Properties:
 (Nuclear quadrupole moments (NQMom) in fm**2, nuclear magnetic moments (NMagM)
  in nuclear magnetons)

  Atom         1           2           3           4           5           6           7           8           9          10
 IAtWgt=          98          98          35          35          35          35          35          35          35          35
 AtmWgt=  97.9055000  97.9055000  34.9688527  34.9688527  34.9688527  34.9688527  34.9688527  34.9688527  34.9688527  34.9688527
 NucSpn=           0           0           3           3           3           3           3           3           3           3
 AtZEff=   0.0000000   0.0000000   0.0000000   0.0000000   0.0000000   0.0000000   0.0000000   0.0000000   0.0000000   0.0000000
 NQMom=    0.0000000   0.0000000  -8.1650000  -8.1650000  -8.1650000  -8.1650000  -8.1650000  -8.1650000  -8.1650000  -8.1650000
 NMagM=    0.0000000   0.0000000   0.8218740   0.8218740   0.8218740   0.8218740   0.8218740   0.8218740   0.8218740   0.8218740
 Leave Link  101 at Tue May  5 12:47:01 2015, MaxMem= 1073741824 cpu:       0.1
 (Enter /usr/g09/l202.exe)
                          Input orientation:                          
 ---------------------------------------------------------------------
 Center     Atomic      Atomic             Coordinates (Angstroms)
 Number     Number       Type             X           Y           Z
 ---------------------------------------------------------------------
      1         42           0        0.000000    0.000000    0.000000
      2         42           0        0.000000    0.000000    2.240158
      3         17           0        0.849678    2.051304    2.782000
      4         17           0        2.051304   -0.849678    2.782000
      5         17           0       -2.051304    0.849678    2.782000
      6         17           0       -0.849678   -2.051304    2.782000
      7         17           0        2.051304    0.849678   -0.540000
      8         17           0        0.849678   -2.051304   -0.540000
      9         17           0       -0.849678    2.051304   -0.540000
     10         17           0       -2.051304   -0.849678   -0.540000
 ---------------------------------------------------------------------
                    Distance matrix (angstroms):
                    1          2          3          4          5
     1  Mo   0.000000
     2  Mo   2.240158   0.000000
     3  Cl   3.559399   2.285474   0.000000
     4  Cl   3.559399   2.285474   3.140000   0.000000
     5  Cl   3.559399   2.285474   3.140000   4.440631   0.000000
     6  Cl   3.559399   2.285474   4.440631   3.140000   3.140000
     7  Cl   2.285038   3.557960   3.731420   3.731420   5.278927
     8  Cl   2.285038   3.557960   5.278927   3.731420   5.278927
     9  Cl   2.285038   3.557960   3.731420   5.278927   3.731420
    10  Cl   2.285038   3.557960   5.278927   5.278927   3.731420
                    6          7          8          9         10
     6  Cl   0.000000
     7  Cl   5.278927   0.000000
     8  Cl   3.731420   3.140000   0.000000
     9  Cl   5.278927   3.140000   4.440631   0.000000
    10  Cl   3.731420   4.440631   3.140000   3.140000   0.000000
 Stoichiometry    Cl8Mo2(2-)
 Framework group  C4V[C4(MoMo),2SGV(Cl2),2SGD(Cl2)]
 Deg. of freedom     5
 Full point group                 C4V     NOp   8
 Largest Abelian subgroup         C2V     NOp   4
 Largest concise Abelian subgroup C2V     NOp   4
                         Standard orientation:                         
 ---------------------------------------------------------------------
 Center     Atomic      Atomic             Coordinates (Angstroms)
 Number     Number       Type             X           Y           Z
 ---------------------------------------------------------------------
      1         42           0        0.000000    0.000000    1.120648
      2         42           0        0.000000    0.000000   -1.119510
      3         17           0        1.570000    1.570000   -1.661352
      4         17           0       -1.570000    1.570000   -1.661352
      5         17           0        1.570000   -1.570000   -1.661352
      6         17           0       -1.570000   -1.570000   -1.661352
      7         17           0        0.000000    2.220315    1.660648
      8         17           0       -2.220315    0.000000    1.660648
      9         17           0        2.220315    0.000000    1.660648
     10         17           0        0.000000   -2.220315    1.660648
 ---------------------------------------------------------------------
 Rotational constants (GHZ):      0.3664515      0.2960578      0.2960578
 Leave Link  202 at Tue May  5 12:47:01 2015, MaxMem= 1073741824 cpu:       0.0
 (Enter /usr/g09/l301.exe)
 General basis read from cards:  (5D, 7F)
 Centers:   3  4  5  6  7  8  9 10
 6-31g**
 ****
 Centers:   1  2
 LanL2DZ
 ****
 Ernie: Thresh=  0.10000D-02 Tol=  0.10000D-05 Strict=F.
 Ernie:  2 primitive shells out of 172 were deleted.
 ======================================================================================================
                                       Pseudopotential Parameters
 ======================================================================================================
  Center     Atomic      Valence      Angular      Power
  Number     Number     Electrons     Momentum     of R      Exponent        Coefficient   SO-Coeffient
 ======================================================================================================
    1         42           14
                                      F and up 
                                                     0      537.9667807       -0.04694920    0.00000000
                                                     1      147.8982938      -20.20800840    0.00000000
                                                     2       45.7358898     -106.21163020    0.00000000
                                                     2       13.2911467      -41.81073680    0.00000000
                                                     2        4.7059961       -4.20541030    0.00000000
                                      S - F
                                                     0      110.2991760        2.80637170    0.00000000
                                                     1       23.2014645       44.51620120    0.00000000
                                                     2        5.3530131       82.77852270    0.00000000
                                      P - F
                                                     0       63.2901397        4.94208760    0.00000000
                                                     1       23.3315302       25.86049760    0.00000000
                                                     2       24.6759423      132.47087420    0.00000000
                                                     2        4.6493040       57.31497940    0.00000000
                                      D - F
                                                     0      104.4839977        3.00545910    0.00000000
                                                     1       66.2307245       26.36378510    0.00000000
                                                     2       39.1283176      183.38491990    0.00000000
                                                     2       13.1164437       98.44530680    0.00000000
                                                     2        3.6280263       22.49013770    0.00000000
    2         42           14
                                      F and up 
                                                     0      537.9667807       -0.04694920    0.00000000
                                                     1      147.8982938      -20.20800840    0.00000000
                                                     2       45.7358898     -106.21163020    0.00000000
                                                     2       13.2911467      -41.81073680    0.00000000
                                                     2        4.7059961       -4.20541030    0.00000000
                                      S - F
                                                     0      110.2991760        2.80637170    0.00000000
                                                     1       23.2014645       44.51620120    0.00000000
                                                     2        5.3530131       82.77852270    0.00000000
                                      P - F
                                                     0       63.2901397        4.94208760    0.00000000
                                                     1       23.3315302       25.86049760    0.00000000
                                                     2       24.6759423      132.47087420    0.00000000
                                                     2        4.6493040       57.31497940    0.00000000
                                      D - F
                                                     0      104.4839977        3.00545910    0.00000000
                                                     1       66.2307245       26.36378510    0.00000000
                                                     2       39.1283176      183.38491990    0.00000000
                                                     2       13.1164437       98.44530680    0.00000000
                                                     2        3.6280263       22.49013770    0.00000000
    3         17
                                   No pseudopotential on this center.
    4         17
                                   No pseudopotential on this center.
    5         17
                                   No pseudopotential on this center.
    6         17
                                   No pseudopotential on this center.
    7         17
                                   No pseudopotential on this center.
    8         17
                                   No pseudopotential on this center.
    9         17
                                   No pseudopotential on this center.
   10         17
                                   No pseudopotential on this center.
 ======================================================================================================
 There are    64 symmetry adapted basis functions of A1  symmetry.
 There are    32 symmetry adapted basis functions of A2  symmetry.
 There are    46 symmetry adapted basis functions of B1  symmetry.
 There are    46 symmetry adapted basis functions of B2  symmetry.
 Integral buffers will be    131072 words long.
 Raffenetti 2 integral format.
 Two-electron integral symmetry is turned on.
   188 basis functions,   514 primitive gaussians,   200 cartesian basis functions
    83 alpha electrons       83 beta electrons
       nuclear repulsion energy      1857.3542557285 Hartrees.
 IExCor=  402 DFT=T Ex+Corr=B3LYP ExCW=0 ScaHFX=  0.200000
 ScaDFX=  0.800000  0.720000  1.000000  0.810000 ScalE2=  1.000000  1.000000
 IRadAn=      0 IRanWt=     -1 IRanGd=            0 ICorTp=0
 NAtoms=   10 NActive=   10 NUniq=    4 SFac= 3.00D+00 NAtFMM=   80 NAOKFM=F Big=F
 Leave Link  301 at Tue May  5 12:47:01 2015, MaxMem= 1073741824 cpu:       0.2
 (Enter /usr/g09/l302.exe)
 NPDir=0 NMtPBC=     1 NCelOv=     1 NCel=       1 NClECP=     1 NCelD=      1
         NCelK=      1 NCelE2=     1 NClLst=     1 CellRange=     0.0.
 One-electron integrals computed using PRISM.
 One-electron integral symmetry used in STVInt
   8 Symmetry operations used in ECPInt.
 ECPInt:  NShTT=    1596 NPrTT=   14825 LenC2=    1485 LenP2D=    9005.
 LDataN:  DoStor=T MaxTD1= 5 Len=  102
 NBasis=   188 RedAO= T  NBF=    64    32    46    46
 NBsUse=   188 1.00D-06 NBFU=    64    32    46    46
 Precomputing XC quadrature grid using
 IXCGrd= 2 IRadAn=           0 IRanWt=          -1 IRanGd=           0 AccXCQ= 1.00D-10.
 Defaulting to unpruned grid for atomic number  42.
 NRdTot=     628 NPtTot=       99784 NUsed=      104323 NTot=      104355
 NSgBfM=   200   200   200   200   200 NAtAll=    10    10.
 Leave Link  302 at Tue May  5 12:47:01 2015, MaxMem= 1073741824 cpu:       2.1
 (Enter /usr/g09/l303.exe)
 DipDrv:  MaxL=1.
 Leave Link  303 at Tue May  5 12:47:01 2015, MaxMem= 1073741824 cpu:       0.2
 (Enter /usr/g09/l401.exe)
 Harris functional with IExCor=  402 diagonalized for initial guess.
 ExpMin= 2.47D-02 ExpMax= 2.52D+04 ExpMxC= 3.78D+03 IAcc=3 IRadAn=         0 AccDes= 0.00D+00
 HarFok:  IExCor=  402 AccDes= 0.00D+00 IRadAn=         0 IDoV= 1
 ScaDFX=  1.000000  1.000000  1.000000  1.000000
 Defaulting to unpruned grid for atomic number  42.
 Defaulting to unpruned grid for atomic number  42.
 Defaulting to unpruned grid for atomic number  42.
 Defaulting to unpruned grid for atomic number  42.
 Defaulting to unpruned grid for atomic number  42.
 Defaulting to unpruned grid for atomic number  42.
 Defaulting to unpruned grid for atomic number  42.
 Defaulting to unpruned grid for atomic number  42.
 FoFCou: FMM=F IPFlag=           0 FMFlag=      100000 FMFlg1=           0
         NFxFlg=           0 DoJE=T BraDBF=F KetDBF=T FulRan=T
         Omega=  0.000000  0.000000  1.000000  0.000000  0.000000 ICntrl=     500 IOpCl=  0
         NMat0=    1 NMatS0=    1 NMatT0=    0 NMatD0=    1 NMtDS0=    0 NMtDT0=    0
         I1Cent=           4 NGrid=           0.
 Petite list used in FoFCou.
 Harris En= -3823.58574849001    
 Initial guess orbital symmetries:
       Occupied  (E) (E) (A1) (B2) (E) (E) (A1) (B1) (E) (E) (E)
                 (E) (A1) (B2) (A1) (B1) (E) (E) (A1) (B2) (E)
                 (E) (A1) (B1) (A1) (E) (E) (B2) (A2) (E) (E) (B1)
                 (A1) (A2) (E) (E) (E) (E) (B1) (B2) (A1) (A1)
                 (A1) (E) (E) (E) (E) (A1) (A1) (A1) (B2) (B1)
                 (E) (E) (E) (E) (A1) (B1) (B2) (A1) (B2) (B1)
                 (E) (E) (A1) (E) (E) (E) (E) (A1) (E) (E) (B2)
                 (B1) (E) (E) (E) (E) (A2) (A2) (E) (E) (A1)
       Virtual   (B1) (B2) (A1) (A1) (E) (E) (A1) (E) (E) (E) (E)
                 (A1) (B1) (B2) (A1) (A1) (E) (E) (A1) (E) (E)
                 (A1) (B1) (B2) (B1) (B2) (E) (E) (E) (E) (B2)
                 (B1) (A1) (E) (E) (E) (E) (A1) (E) (E) (A2) (E)
                 (E) (A1) (B1) (B2) (E) (E) (A2) (A1) (B1) (B2)
                 (A1) (E) (E) (B1) (B2) (A1) (E) (E) (E) (E) (A1)
                 (E) (E) (A2) (B2) (B1) (A1) (A2) (E) (E) (E) (E)
                 (B2) (B1) (E) (E) (A1) (A2) (E) (E) (A2) (E) (E)
                 (A1) (A1) (B1) (B2) (A1) (E) (E) (E) (E) (B1)
                 (B2) (E) (E) (E) (E) (A1) (B1) (B2) (A1) (A1)
 The electronic state of the initial guess is 1-A1.
 Leave Link  401 at Tue May  5 12:47:02 2015, MaxMem= 1073741824 cpu:       1.8
 (Enter /usr/g09/l502.exe)
 Closed shell SCF:
 Requested convergence on RMS density matrix=1.00D-08 within 128 cycles.
 Requested convergence on MAX density matrix=1.00D-06.
 Requested convergence on             energy=1.00D-06.
 No special actions if energy rises.
 Using DIIS extrapolation, IDIIS=  1040.
 Integral symmetry usage will be decided dynamically.
       104220 words used for storage of precomputed grid.
 Keep R1 ints in memory in canonical form, NReq=206321650.
 IEnd=      246386 IEndB=      246386 NGot=  1073741824 MDV=   871537201
 LenX=   871537201 LenY=   871496760
 Symmetry not used in FoFDir.
 MinBra= 0 MaxBra= 2 Meth= 1.
 IRaf=       0 NMat=   1 IRICut=       1 DoRegI=T DoRafI=F ISym2E= 0 JSym2E=0.

 Cycle   1  Pass 1  IDiag  1:
 Defaulting to unpruned grid for atomic number  42.
 Defaulting to unpruned grid for atomic number  42.
 Defaulting to unpruned grid for atomic number  42.
 Defaulting to unpruned grid for atomic number  42.
 Defaulting to unpruned grid for atomic number  42.
 Defaulting to unpruned grid for atomic number  42.
 Defaulting to unpruned grid for atomic number  42.
 Defaulting to unpruned grid for atomic number  42.
 E= -3815.50507475682    
 DIIS: error= 9.32D-02 at cycle   1 NSaved=   1.
 NSaved= 1 IEnMin= 1 EnMin= -3815.50507475682     IErMin= 1 ErrMin= 9.32D-02
 ErrMax= 9.32D-02 EMaxC= 1.00D-01 BMatC= 1.55D+00 BMatP= 1.55D+00
 IDIUse=3 WtCom= 6.80D-02 WtEn= 9.32D-01
 Coeff-Com:  0.100D+01
 Coeff-En:   0.100D+01
 Coeff:      0.100D+01
 Gap=     0.007 Goal=   None    Shift=    0.000
 GapD=    0.007 DampG=0.250 DampE=0.250 DampFc=0.1250 IDamp=-1.
 Damping current iteration by 1.25D-01
 RMSDP=2.63D-02 MaxDP=1.04D+00              OVMax= 8.79D-01

 Cycle   2  Pass 1  IDiag  1:
 E= -3815.96829780014     Delta-E=       -0.463223043318 Rises=F Damp=T
 DIIS: error= 5.95D-02 at cycle   2 NSaved=   2.
 NSaved= 2 IEnMin= 2 EnMin= -3815.96829780014     IErMin= 2 ErrMin= 5.95D-02
 ErrMax= 5.95D-02 EMaxC= 1.00D-01 BMatC= 5.44D-01 BMatP= 1.55D+00
 IDIUse=3 WtCom= 4.05D-01 WtEn= 5.95D-01
 Coeff-Com: -0.103D+01 0.203D+01
 Coeff-En:   0.000D+00 0.100D+01
 Coeff:     -0.415D+00 0.142D+01
 Gap=    -0.072 Goal=   None    Shift=    0.000
 RMSDP=9.79D-03 MaxDP=3.26D-01 DE=-4.63D-01 OVMax= 8.72D-01

 Cycle   3  Pass 1  IDiag  1:
 E= -3816.96626251186     Delta-E=       -0.997964711722 Rises=F Damp=F
 DIIS: error= 1.86D-02 at cycle   3 NSaved=   3.
 NSaved= 3 IEnMin= 3 EnMin= -3816.96626251186     IErMin= 3 ErrMin= 1.86D-02
 ErrMax= 1.86D-02 EMaxC= 1.00D-01 BMatC= 5.32D-02 BMatP= 5.44D-01
 IDIUse=3 WtCom= 8.14D-01 WtEn= 1.86D-01
 Coeff-Com: -0.133D+00 0.384D+00 0.749D+00
 Coeff-En:   0.000D+00 0.000D+00 0.100D+01
 Coeff:     -0.108D+00 0.312D+00 0.796D+00
 Gap=     0.053 Goal=   None    Shift=    0.000
 RMSDP=4.84D-03 MaxDP=2.71D-01 DE=-9.98D-01 OVMax= 3.00D-01

 Cycle   4  Pass 1  IDiag  1:
 E= -3816.38657882454     Delta-E=        0.579683687322 Rises=F Damp=F
 DIIS: error= 7.87D-02 at cycle   4 NSaved=   4.
 NSaved= 4 IEnMin= 3 EnMin= -3816.96626251186     IErMin= 3 ErrMin= 1.86D-02
 ErrMax= 7.87D-02 EMaxC= 1.00D-01 BMatC= 5.92D-01 BMatP= 5.32D-02
 IDIUse=2 WtCom= 0.00D+00 WtEn= 1.00D+00
 Coeff-En:   0.000D+00 0.000D+00 0.846D+00 0.154D+00
 Coeff:      0.000D+00 0.000D+00 0.846D+00 0.154D+00
 Gap=     0.082 Goal=   None    Shift=    0.000
 RMSDP=2.95D-03 MaxDP=1.56D-01 DE= 5.80D-01 OVMax= 1.78D-01

 Cycle   5  Pass 1  IDiag  1:
 E= -3816.98355437677     Delta-E=       -0.596975552235 Rises=F Damp=F
 DIIS: error= 1.76D-02 at cycle   5 NSaved=   5.
 NSaved= 5 IEnMin= 5 EnMin= -3816.98355437677     IErMin= 5 ErrMin= 1.76D-02
 ErrMax= 1.76D-02 EMaxC= 1.00D-01 BMatC= 3.68D-02 BMatP= 5.32D-02
 IDIUse=3 WtCom= 8.24D-01 WtEn= 1.76D-01
 Coeff-Com: -0.867D-01 0.133D+00 0.398D+00-0.177D-01 0.574D+00
 Coeff-En:   0.000D+00 0.000D+00 0.438D+00 0.000D+00 0.562D+00
 Coeff:     -0.715D-01 0.109D+00 0.405D+00-0.146D-01 0.572D+00
 Gap=     0.095 Goal=   None    Shift=    0.000
 RMSDP=1.14D-03 MaxDP=4.89D-02 DE=-5.97D-01 OVMax= 5.20D-02

 Cycle   6  Pass 1  IDiag  1:
 E= -3817.02556049712     Delta-E=       -0.042006120348 Rises=F Damp=F
 DIIS: error= 3.46D-03 at cycle   6 NSaved=   6.
 NSaved= 6 IEnMin= 6 EnMin= -3817.02556049712     IErMin= 6 ErrMin= 3.46D-03
 ErrMax= 3.46D-03 EMaxC= 1.00D-01 BMatC= 7.58D-04 BMatP= 3.68D-02
 IDIUse=3 WtCom= 9.65D-01 WtEn= 3.46D-02
 Coeff-Com: -0.539D-01 0.700D-01 0.160D+00-0.174D-01 0.245D+00 0.597D+00
 Coeff-En:   0.000D+00 0.000D+00 0.000D+00 0.000D+00 0.000D+00 0.100D+01
 Coeff:     -0.520D-01 0.676D-01 0.154D+00-0.168D-01 0.236D+00 0.611D+00
 Gap=     0.094 Goal=   None    Shift=    0.000
 RMSDP=1.60D-04 MaxDP=4.31D-03 DE=-4.20D-02 OVMax= 5.83D-03

 Cycle   7  Pass 1  IDiag  1:
 E= -3817.02605694650     Delta-E=       -0.000496449384 Rises=F Damp=F
 DIIS: error= 2.21D-03 at cycle   7 NSaved=   7.
 NSaved= 7 IEnMin= 7 EnMin= -3817.02605694650     IErMin= 7 ErrMin= 2.21D-03
 ErrMax= 2.21D-03 EMaxC= 1.00D-01 BMatC= 3.75D-04 BMatP= 7.58D-04
 IDIUse=3 WtCom= 9.78D-01 WtEn= 2.21D-02
 Coeff-Com: -0.266D-01 0.352D-01 0.675D-02-0.313D-02-0.456D-01 0.314D-01
 Coeff-Com:  0.100D+01
 Coeff-En:   0.000D+00 0.000D+00 0.000D+00 0.000D+00 0.000D+00 0.000D+00
 Coeff-En:   0.100D+01
 Coeff:     -0.260D-01 0.345D-01 0.660D-02-0.307D-02-0.446D-01 0.307D-01
 Coeff:      0.100D+01
 Gap=     0.095 Goal=   None    Shift=    0.000
 RMSDP=7.29D-05 MaxDP=2.43D-03 DE=-4.96D-04 OVMax= 3.04D-03

 Cycle   8  Pass 1  IDiag  1:
 E= -3817.02639471939     Delta-E=       -0.000337772892 Rises=F Damp=F
 DIIS: error= 1.10D-03 at cycle   8 NSaved=   8.
 NSaved= 8 IEnMin= 8 EnMin= -3817.02639471939     IErMin= 8 ErrMin= 1.10D-03
 ErrMax= 1.10D-03 EMaxC= 1.00D-01 BMatC= 8.31D-05 BMatP= 3.75D-04
 IDIUse=3 WtCom= 9.89D-01 WtEn= 1.10D-02
 Coeff-Com: -0.555D-02 0.826D-02-0.242D-01 0.620D-02-0.724D-01-0.223D+00
 Coeff-Com:  0.544D-01 0.126D+01
 Coeff-En:   0.000D+00 0.000D+00 0.000D+00 0.000D+00 0.000D+00 0.000D+00
 Coeff-En:   0.000D+00 0.100D+01
 Coeff:     -0.549D-02 0.817D-02-0.239D-01 0.613D-02-0.716D-01-0.220D+00
 Coeff:      0.538D-01 0.125D+01
 Gap=     0.095 Goal=   None    Shift=    0.000
 RMSDP=4.66D-05 MaxDP=1.73D-03 DE=-3.38D-04 OVMax= 2.78D-03

 Cycle   9  Pass 1  IDiag  1:
 E= -3817.02649359807     Delta-E=       -0.000098878680 Rises=F Damp=F
 DIIS: error= 1.70D-04 at cycle   9 NSaved=   9.
 NSaved= 9 IEnMin= 9 EnMin= -3817.02649359807     IErMin= 9 ErrMin= 1.70D-04
 ErrMax= 1.70D-04 EMaxC= 1.00D-01 BMatC= 4.41D-06 BMatP= 8.31D-05
 IDIUse=3 WtCom= 9.98D-01 WtEn= 1.70D-03
 Coeff-Com:  0.124D-02-0.157D-02-0.643D-02 0.453D-02-0.121D-01-0.822D-01
 Coeff-Com: -0.204D+00 0.402D+00 0.899D+00
 Coeff-En:   0.000D+00 0.000D+00 0.000D+00 0.000D+00 0.000D+00 0.000D+00
 Coeff-En:   0.000D+00 0.000D+00 0.100D+01
 Coeff:      0.124D-02-0.156D-02-0.642D-02 0.452D-02-0.121D-01-0.820D-01
 Coeff:     -0.204D+00 0.401D+00 0.899D+00
 Gap=     0.095 Goal=   None    Shift=    0.000
 RMSDP=1.90D-05 MaxDP=5.50D-04 DE=-9.89D-05 OVMax= 8.99D-04

 Cycle  10  Pass 1  IDiag  1:
 E= -3817.02649546021     Delta-E=       -0.000001862140 Rises=F Damp=F
 DIIS: error= 2.00D-04 at cycle  10 NSaved=  10.
 NSaved=10 IEnMin=10 EnMin= -3817.02649546021     IErMin= 9 ErrMin= 1.70D-04
 ErrMax= 2.00D-04 EMaxC= 1.00D-01 BMatC= 2.99D-06 BMatP= 4.41D-06
 IDIUse=3 WtCom= 9.98D-01 WtEn= 1.70D-03
 Coeff-Com:  0.310D-03-0.575D-03-0.109D-02 0.758D-03-0.159D-02 0.159D-01
 Coeff-Com:  0.707D-01-0.471D-01-0.294D-01 0.992D+00
 Coeff-En:   0.000D+00 0.000D+00 0.000D+00 0.000D+00 0.000D+00 0.000D+00
 Coeff-En:   0.000D+00 0.000D+00 0.364D+00 0.636D+00
 Coeff:      0.309D-03-0.574D-03-0.109D-02 0.757D-03-0.159D-02 0.159D-01
 Coeff:      0.706D-01-0.470D-01-0.287D-01 0.991D+00
 Gap=     0.095 Goal=   None    Shift=    0.000
 RMSDP=7.57D-06 MaxDP=3.24D-04 DE=-1.86D-06 OVMax= 3.51D-04

 Cycle  11  Pass 1  IDiag  1:
 E= -3817.02649850396     Delta-E=       -0.000003043745 Rises=F Damp=F
 DIIS: error= 3.97D-05 at cycle  11 NSaved=  11.
 NSaved=11 IEnMin=11 EnMin= -3817.02649850396     IErMin=11 ErrMin= 3.97D-05
 ErrMax= 3.97D-05 EMaxC= 1.00D-01 BMatC= 1.11D-07 BMatP= 2.99D-06
 IDIUse=1 WtCom= 1.00D+00 WtEn= 0.00D+00
 Coeff-Com:  0.128D-04-0.393D-04-0.190D-03 0.936D-04-0.383D-03 0.535D-02
 Coeff-Com:  0.254D-01-0.980D-02-0.336D-01 0.138D+00 0.876D+00
 Coeff:      0.128D-04-0.393D-04-0.190D-03 0.936D-04-0.383D-03 0.535D-02
 Coeff:      0.254D-01-0.980D-02-0.336D-01 0.138D+00 0.876D+00
 Gap=     0.095 Goal=   None    Shift=    0.000
 RMSDP=1.66D-06 MaxDP=6.78D-05 DE=-3.04D-06 OVMax= 8.59D-05

 Cycle  12  Pass 1  IDiag  1:
 E= -3817.02649862741     Delta-E=       -0.000000123452 Rises=F Damp=F
 DIIS: error= 3.04D-06 at cycle  12 NSaved=  12.
 NSaved=12 IEnMin=12 EnMin= -3817.02649862741     IErMin=12 ErrMin= 3.04D-06
 ErrMax= 3.04D-06 EMaxC= 1.00D-01 BMatC= 1.08D-09 BMatP= 1.11D-07
 IDIUse=1 WtCom= 1.00D+00 WtEn= 0.00D+00
 Coeff-Com:  0.464D-05-0.674D-05-0.632D-04 0.567D-05-0.740D-04 0.273D-03
 Coeff-Com:  0.141D-02 0.662D-03-0.446D-02-0.220D-01 0.155D+00 0.870D+00
 Coeff:      0.464D-05-0.674D-05-0.632D-04 0.567D-05-0.740D-04 0.273D-03
 Coeff:      0.141D-02 0.662D-03-0.446D-02-0.220D-01 0.155D+00 0.870D+00
 Gap=     0.095 Goal=   None    Shift=    0.000
 RMSDP=1.83D-07 MaxDP=1.09D-05 DE=-1.23D-07 OVMax= 1.17D-05

 Cycle  13  Pass 1  IDiag  1:
 E= -3817.02649862853     Delta-E=       -0.000000001114 Rises=F Damp=F
 DIIS: error= 4.19D-07 at cycle  13 NSaved=  13.
 NSaved=13 IEnMin=13 EnMin= -3817.02649862853     IErMin=13 ErrMin= 4.19D-07
 ErrMax= 4.19D-07 EMaxC= 1.00D-01 BMatC= 2.63D-11 BMatP= 1.08D-09
 IDIUse=1 WtCom= 1.00D+00 WtEn= 0.00D+00
 Coeff-Com:  0.273D-05-0.285D-05-0.221D-04 0.764D-06-0.323D-04-0.112D-03
 Coeff-Com: -0.244D-03 0.912D-03 0.153D-03-0.114D-01 0.290D-01 0.311D+00
 Coeff-Com:  0.671D+00
 Coeff:      0.273D-05-0.285D-05-0.221D-04 0.764D-06-0.323D-04-0.112D-03
 Coeff:     -0.244D-03 0.912D-03 0.153D-03-0.114D-01 0.290D-01 0.311D+00
 Coeff:      0.671D+00
 Gap=     0.095 Goal=   None    Shift=    0.000
 RMSDP=3.82D-08 MaxDP=1.64D-06 DE=-1.11D-09 OVMax= 1.74D-06

 Cycle  14  Pass 1  IDiag  1:
 E= -3817.02649862857     Delta-E=       -0.000000000047 Rises=F Damp=F
 DIIS: error= 1.59D-07 at cycle  14 NSaved=  14.
 NSaved=14 IEnMin=14 EnMin= -3817.02649862857     IErMin=14 ErrMin= 1.59D-07
 ErrMax= 1.59D-07 EMaxC= 1.00D-01 BMatC= 3.19D-12 BMatP= 2.63D-11
 IDIUse=1 WtCom= 1.00D+00 WtEn= 0.00D+00
 Coeff-Com:  0.373D-06-0.434D-06 0.455D-05-0.129D-06 0.247D-05-0.474D-04
 Coeff-Com: -0.153D-03 0.195D-03 0.839D-03 0.145D-02-0.116D-01-0.533D-01
 Coeff-Com:  0.112D-01 0.105D+01
 Coeff:      0.373D-06-0.434D-06 0.455D-05-0.129D-06 0.247D-05-0.474D-04
 Coeff:     -0.153D-03 0.195D-03 0.839D-03 0.145D-02-0.116D-01-0.533D-01
 Coeff:      0.112D-01 0.105D+01
 Gap=     0.095 Goal=   None    Shift=    0.000
 RMSDP=1.47D-08 MaxDP=1.17D-06 DE=-4.73D-11 OVMax= 1.31D-06

 Cycle  15  Pass 1  IDiag  1:
 E= -3817.02649862852     Delta-E=        0.000000000057 Rises=F Damp=F
 DIIS: error= 3.16D-08 at cycle  15 NSaved=  15.
 NSaved=15 IEnMin=14 EnMin= -3817.02649862857     IErMin=15 ErrMin= 3.16D-08
 ErrMax= 3.16D-08 EMaxC= 1.00D-01 BMatC= 1.25D-13 BMatP= 3.19D-12
 IDIUse=1 WtCom= 1.00D+00 WtEn= 0.00D+00
 Coeff-Com: -0.934D-07 0.103D-06 0.280D-05-0.246D-06 0.264D-05-0.295D-05
 Coeff-Com: -0.108D-04 0.631D-05 0.176D-03 0.100D-02-0.438D-02-0.286D-01
 Coeff-Com: -0.415D-01 0.257D+00 0.817D+00
 Coeff:     -0.934D-07 0.103D-06 0.280D-05-0.246D-06 0.264D-05-0.295D-05
 Coeff:     -0.108D-04 0.631D-05 0.176D-03 0.100D-02-0.438D-02-0.286D-01
 Coeff:     -0.415D-01 0.257D+00 0.817D+00
 Gap=     0.095 Goal=   None    Shift=    0.000
 RMSDP=4.18D-09 MaxDP=2.19D-07 DE= 5.73D-11 OVMax= 2.55D-07

 SCF Done:  E(RB3LYP) =  -3817.02649863     A.U. after   15 cycles
             Convg  =    0.4182D-08             -V/T =  2.0259
 KE= 3.720742905787D+03 PE=-1.279392328431D+04 EE= 3.398799624166D+03
 Leave Link  502 at Tue May  5 12:47:12 2015, MaxMem= 1073741824 cpu:      80.3
 (Enter /usr/g09/l601.exe)
 Copying SCF densities to generalized density rwf, IOpCl= 0 IROHF=0.

 **********************************************************************

            Population analysis using the SCF density.

 **********************************************************************

 Orbital symmetries:
       Occupied  (E) (E) (A1) (E) (E) (B1) (A1) (B2) (E) (E) (E)
                 (E) (A1) (A1) (B2) (B1) (A1) (E) (E) (A1) (E)
                 (E) (B2) (B1) (A2) (E) (E) (A2) (E) (E) (B1) (B2)
                 (A1) (E) (E) (B2) (B1) (A1) (E) (E) (A1) (A1)
                 (A1) (E) (E) (E) (E) (A1) (A1) (A1) (B2) (B1)
                 (E) (E) (E) (E) (A1) (B2) (B1) (A1) (B1) (B2)
                 (E) (E) (E) (E) (A1) (E) (E) (A1) (E) (E) (E)
                 (E) (B2) (B1) (E) (E) (A1) (A2) (A2) (E) (E)
       Virtual   (B2) (B1) (E) (E) (A1) (A1) (B1) (B2) (A1) (E)
                 (E) (E) (E) (A1) (A1) (A1) (E) (E) (A1) (A1) (E)
                 (E) (B2) (B1) (B2) (B1) (E) (E) (E) (E) (A1) (B1)
                 (B2) (E) (E) (A1) (E) (E) (E) (E) (A1) (E) (E)
                 (A2) (A1) (B1) (B2) (E) (E) (B1) (B2) (A2) (E)
                 (E) (A1) (A1) (B1) (B2) (E) (E) (A1) (E) (E) (E)
                 (E) (A1) (B2) (B1) (A2) (E) (E) (A2) (E) (E) (B2)
                 (B1) (E) (E) (A1) (A2) (E) (E) (A2) (E) (E) (A1)
                 (A1) (B1) (B2) (A1) (E) (E) (E) (E) (B1) (B2)
                 (E) (E) (A1) (E) (E) (B1) (B2) (A1) (A1)
 The electronic state is 1-A1.
 Alpha  occ. eigenvalues -- -101.24125-101.24125-101.24123-101.24123-101.24123
 Alpha  occ. eigenvalues -- -101.24122-101.24121-101.24121  -9.17528  -9.17528
 Alpha  occ. eigenvalues --   -9.17522  -9.17522  -9.17521  -9.17518  -9.17518
 Alpha  occ. eigenvalues --   -9.17518  -6.93436  -6.93436  -6.93436  -6.93435
 Alpha  occ. eigenvalues --   -6.93435  -6.93435  -6.93435  -6.93435  -6.93056
 Alpha  occ. eigenvalues --   -6.93056  -6.93056  -6.93054  -6.93054  -6.93054
 Alpha  occ. eigenvalues --   -6.93054  -6.93053  -6.93007  -6.93006  -6.93006
 Alpha  occ. eigenvalues --   -6.93004  -6.93004  -6.93003  -6.93001  -6.93001
 Alpha  occ. eigenvalues --   -2.29385  -2.27669  -1.33624  -1.32251  -1.32251
 Alpha  occ. eigenvalues --   -1.30974  -1.30974  -1.24687  -0.55340  -0.54624
 Alpha  occ. eigenvalues --   -0.53070  -0.53063  -0.52878  -0.52878  -0.52489
 Alpha  occ. eigenvalues --   -0.52489  -0.15273  -0.14993  -0.14986  -0.13415
 Alpha  occ. eigenvalues --   -0.12726  -0.12719  -0.12617  -0.12617  -0.10351
 Alpha  occ. eigenvalues --   -0.10351  -0.09859  -0.09163  -0.09163  -0.06609
 Alpha  occ. eigenvalues --   -0.05198  -0.05198  -0.04118  -0.04118  -0.04027
 Alpha  occ. eigenvalues --   -0.04022  -0.04022  -0.04022  -0.02893  -0.01912
 Alpha  occ. eigenvalues --   -0.01307   0.02094   0.02094
 Alpha virt. eigenvalues --    0.11564   0.11568   0.18685   0.18685   0.19825
 Alpha virt. eigenvalues --    0.21703   0.22312   0.22331   0.23666   0.25292
 Alpha virt. eigenvalues --    0.25292   0.25445   0.25445   0.30751   0.33242
 Alpha virt. eigenvalues --    0.39491   0.46799   0.46799   0.47805   0.50473
 Alpha virt. eigenvalues --    0.54540   0.54540   0.58503   0.58507   0.59646
 Alpha virt. eigenvalues --    0.59647   0.61787   0.61787   0.63906   0.63906
 Alpha virt. eigenvalues --    0.66502   0.66794   0.66797   0.68916   0.68916
 Alpha virt. eigenvalues --    0.72106   0.73933   0.73933   0.75701   0.75701
 Alpha virt. eigenvalues --    0.77749   0.79002   0.79002   0.79720   0.79992
 Alpha virt. eigenvalues --    0.80074   0.80093   0.81834   0.81834   0.84703
 Alpha virt. eigenvalues --    0.84718   0.85374   0.88770   0.88770   0.89870
 Alpha virt. eigenvalues --    0.93710   0.95650   0.95650   0.99214   0.99214
 Alpha virt. eigenvalues --    1.03241   1.07441   1.07441   1.13294   1.13294
 Alpha virt. eigenvalues --    1.13303   1.13759   1.13769   1.13793   1.14095
 Alpha virt. eigenvalues --    1.14095   1.14237   1.14837   1.14837   1.15155
 Alpha virt. eigenvalues --    1.15165   1.15167   1.15167   1.16046   1.17994
 Alpha virt. eigenvalues --    1.19379   1.19379   1.19689   1.20021   1.20021
 Alpha virt. eigenvalues --    1.23484   1.24589   1.25977   1.25978   1.28056
 Alpha virt. eigenvalues --    1.33733   1.33733   1.38943   1.38943   1.40472
 Alpha virt. eigenvalues --    1.40512   1.44816   1.44816   1.46455   1.48289
 Alpha virt. eigenvalues --    1.48289   1.55910   1.55922  10.73303  16.80781
     Molecular Orbital Coefficients:
                           1         2         3         4         5
                        (E)--O    (E)--O    (A1)--O   (E)--O    (E)--O
     Eigenvalues --  -101.24125-101.24125-101.24123-101.24123-101.24123
   1 1   Mo 1S          0.00000   0.00000   0.00001   0.00000   0.00000
   2        2S          0.00000   0.00000   0.00002   0.00000   0.00000
   3        3S          0.00000   0.00000  -0.00013   0.00000   0.00000
   4        4PX        -0.00026   0.00000   0.00000   0.00043   0.00000
   5        4PY         0.00000  -0.00026   0.00000   0.00000  -0.00043
   6        4PZ         0.00000   0.00000  -0.00008   0.00000   0.00000
   7        5PX        -0.00313   0.00000   0.00000   0.00454   0.00000
   8        5PY         0.00000  -0.00313   0.00000   0.00000  -0.00454
   9        5PZ         0.00000   0.00000  -0.00086   0.00000   0.00000
  10        6PX         0.00002   0.00000   0.00000   0.00021   0.00000
  11        6PY         0.00000   0.00002   0.00000   0.00000  -0.00021
  12        6PZ         0.00000   0.00000   0.00031   0.00000   0.00000
  13        7D 0        0.00000   0.00000  -0.00003   0.00000   0.00000
  14        7D+1       -0.00005   0.00000   0.00000  -0.00001   0.00000
  15        7D-1        0.00000  -0.00005   0.00000   0.00000   0.00001
  16        7D+2        0.00000   0.00000   0.00000   0.00000   0.00000
  17        7D-2        0.00000   0.00000   0.00000   0.00000   0.00000
  18        8D 0        0.00000   0.00000   0.00066   0.00000   0.00000
  19        8D+1       -0.00071   0.00000   0.00000   0.00040   0.00000
  20        8D-1        0.00000  -0.00071   0.00000   0.00000  -0.00040
  21        8D+2        0.00000   0.00000   0.00000   0.00000   0.00000
  22        8D-2        0.00000   0.00000   0.00000   0.00000   0.00000
  23 2   Mo 1S          0.00000   0.00000  -0.00008   0.00000   0.00000
  24        2S          0.00000   0.00000   0.00006   0.00000   0.00000
  25        3S          0.00000   0.00000  -0.00530   0.00000   0.00000
  26        4PX        -0.00040   0.00000   0.00000  -0.00031   0.00000
  27        4PY         0.00000  -0.00040   0.00000   0.00000   0.00031
  28        4PZ         0.00000   0.00000   0.00005   0.00000   0.00000
  29        5PX        -0.00451   0.00000   0.00000  -0.00317   0.00000
  30        5PY         0.00000  -0.00451   0.00000   0.00000   0.00317
  31        5PZ         0.00000   0.00000   0.00012   0.00000   0.00000
  32        6PX        -0.00005   0.00000   0.00000  -0.00021   0.00000
  33        6PY         0.00000  -0.00005   0.00000   0.00000   0.00021
  34        6PZ         0.00000   0.00000  -0.00096   0.00000   0.00000
  35        7D 0        0.00000   0.00000  -0.00005   0.00000   0.00000
  36        7D+1        0.00005   0.00000   0.00000  -0.00002   0.00000
  37        7D-1        0.00000   0.00005   0.00000   0.00000   0.00002
  38        7D+2        0.00000   0.00000   0.00000   0.00000   0.00000
  39        7D-2        0.00000   0.00000   0.00000   0.00000   0.00000
  40        8D 0        0.00000   0.00000   0.00084   0.00000   0.00000
  41        8D+1        0.00081   0.00000   0.00000   0.00013   0.00000
  42        8D-1        0.00000   0.00081   0.00000   0.00000  -0.00013
  43        8D+2        0.00000   0.00000   0.00000   0.00000   0.00000
  44        8D-2        0.00000   0.00000   0.00000   0.00000   0.00000
  45 3   Cl 1S          0.40891   0.40891   0.45104   0.28464  -0.28464
  46        2S          0.00518   0.00518   0.00573   0.00362  -0.00362
  47        2PX        -0.00003  -0.00002   0.00000  -0.00001   0.00001
  48        2PY        -0.00002  -0.00003   0.00000  -0.00001   0.00001
  49        2PZ         0.00001   0.00001   0.00001   0.00000   0.00000
  50        3S         -0.00255  -0.00255  -0.00251  -0.00156   0.00156
  51        3PX         0.00013   0.00008   0.00000   0.00004  -0.00006
  52        3PY         0.00008   0.00013   0.00000   0.00006  -0.00004
  53        3PZ        -0.00005  -0.00005  -0.00004   0.00000   0.00000
  54        4S          0.00357   0.00357   0.00299   0.00191  -0.00191
  55        4PX        -0.00063  -0.00097  -0.00032  -0.00026   0.00053
  56        4PY        -0.00097  -0.00063  -0.00032  -0.00053   0.00026
  57        4PZ         0.00032   0.00032   0.00033   0.00000   0.00000
  58        5D 0       -0.00002  -0.00002   0.00000  -0.00003   0.00003
  59        5D+1        0.00000  -0.00002  -0.00002   0.00000   0.00001
  60        5D-1       -0.00002   0.00000  -0.00002  -0.00001   0.00000
  61        5D+2       -0.00004   0.00004   0.00000  -0.00002  -0.00002
  62        5D-2        0.00006   0.00006   0.00002   0.00002  -0.00002
  63 4   Cl 1S         -0.40891   0.40891   0.45104  -0.28464  -0.28464
  64        2S         -0.00518   0.00518   0.00573  -0.00362  -0.00362
  65        2PX        -0.00003   0.00002   0.00000  -0.00001  -0.00001
  66        2PY         0.00002  -0.00003   0.00000   0.00001   0.00001
  67        2PZ        -0.00001   0.00001   0.00001   0.00000   0.00000
  68        3S          0.00255  -0.00255  -0.00251   0.00156   0.00156
  69        3PX         0.00013  -0.00008   0.00000   0.00004   0.00006
  70        3PY        -0.00008   0.00013   0.00000  -0.00006  -0.00004
  71        3PZ         0.00005  -0.00005  -0.00004   0.00000   0.00000
  72        4S         -0.00357   0.00357   0.00299  -0.00191  -0.00191
  73        4PX        -0.00063   0.00097   0.00032  -0.00026  -0.00053
  74        4PY         0.00097  -0.00063  -0.00032   0.00053   0.00026
  75        4PZ        -0.00032   0.00032   0.00033   0.00000   0.00000
  76        5D 0        0.00002  -0.00002   0.00000   0.00003   0.00003
  77        5D+1        0.00000   0.00002   0.00002   0.00000  -0.00001
  78        5D-1        0.00002   0.00000  -0.00002   0.00001   0.00000
  79        5D+2        0.00004   0.00004   0.00000   0.00002  -0.00002
  80        5D-2        0.00006  -0.00006  -0.00002   0.00002   0.00002
  81 5   Cl 1S          0.40891  -0.40891   0.45104   0.28464   0.28464
  82        2S          0.00518  -0.00518   0.00573   0.00362   0.00362
  83        2PX        -0.00003   0.00002   0.00000  -0.00001  -0.00001
  84        2PY         0.00002  -0.00003   0.00000   0.00001   0.00001
  85        2PZ         0.00001  -0.00001   0.00001   0.00000   0.00000
  86        3S         -0.00255   0.00255  -0.00251  -0.00156  -0.00156
  87        3PX         0.00013  -0.00008   0.00000   0.00004   0.00006
  88        3PY        -0.00008   0.00013   0.00000  -0.00006  -0.00004
  89        3PZ        -0.00005   0.00005  -0.00004   0.00000   0.00000
  90        4S          0.00357  -0.00357   0.00299   0.00191   0.00191
  91        4PX        -0.00063   0.00097  -0.00032  -0.00026  -0.00053
  92        4PY         0.00097  -0.00063   0.00032   0.00053   0.00026
  93        4PZ         0.00032  -0.00032   0.00033   0.00000   0.00000
  94        5D 0       -0.00002   0.00002   0.00000  -0.00003  -0.00003
  95        5D+1        0.00000   0.00002  -0.00002   0.00000  -0.00001
  96        5D-1        0.00002   0.00000   0.00002   0.00001   0.00000
  97        5D+2       -0.00004  -0.00004   0.00000  -0.00002   0.00002
  98        5D-2       -0.00006   0.00006  -0.00002  -0.00002  -0.00002
  99 6   Cl 1S         -0.40891  -0.40891   0.45104  -0.28464   0.28464
 100        2S         -0.00518  -0.00518   0.00573  -0.00362   0.00362
 101        2PX        -0.00003  -0.00002   0.00000  -0.00001   0.00001
 102        2PY        -0.00002  -0.00003   0.00000  -0.00001   0.00001
 103        2PZ        -0.00001  -0.00001   0.00001   0.00000   0.00000
 104        3S          0.00255   0.00255  -0.00251   0.00156  -0.00156
 105        3PX         0.00013   0.00008   0.00000   0.00004  -0.00006
 106        3PY         0.00008   0.00013   0.00000   0.00006  -0.00004
 107        3PZ         0.00005   0.00005  -0.00004   0.00000   0.00000
 108        4S         -0.00357  -0.00357   0.00299  -0.00191   0.00191
 109        4PX        -0.00063  -0.00097   0.00032  -0.00026   0.00053
 110        4PY        -0.00097  -0.00063   0.00032  -0.00053   0.00026
 111        4PZ        -0.00032  -0.00032   0.00033   0.00000   0.00000
 112        5D 0        0.00002   0.00002   0.00000   0.00003  -0.00003
 113        5D+1        0.00000  -0.00002   0.00002   0.00000   0.00001
 114        5D-1       -0.00002   0.00000   0.00002  -0.00001   0.00000
 115        5D+2        0.00004  -0.00004   0.00000   0.00002   0.00002
 116        5D-2       -0.00006  -0.00006   0.00002  -0.00002   0.00002
 117 7   Cl 1S          0.00000   0.40253   0.21166   0.00000   0.57829
 118        2S          0.00000   0.00509   0.00268   0.00000   0.00734
 119        2PX        -0.00001   0.00000   0.00000   0.00000   0.00000
 120        2PY         0.00000  -0.00003   0.00000   0.00000  -0.00004
 121        2PZ         0.00000  -0.00001   0.00000   0.00000  -0.00001
 122        3S          0.00000  -0.00261  -0.00124   0.00000  -0.00332
 123        3PX         0.00006   0.00000   0.00000   0.00000   0.00000
 124        3PY         0.00000   0.00016  -0.00003   0.00000   0.00017
 125        3PZ         0.00000   0.00006   0.00003   0.00000   0.00002
 126        4S          0.00000   0.00380   0.00165   0.00000   0.00428
 127        4PX         0.00022   0.00000   0.00000  -0.00037   0.00000
 128        4PY         0.00000  -0.00123  -0.00020   0.00000  -0.00130
 129        4PZ         0.00000  -0.00043  -0.00028   0.00000  -0.00016
 130        5D 0        0.00000  -0.00001   0.00001   0.00000  -0.00005
 131        5D+1       -0.00002   0.00000   0.00000   0.00002   0.00000
 132        5D-1        0.00000   0.00002   0.00002   0.00000   0.00001
 133        5D+2        0.00000  -0.00006  -0.00001   0.00000  -0.00006
 134        5D-2       -0.00004   0.00000   0.00000   0.00005   0.00000
 135 8   Cl 1S         -0.40253   0.00000   0.21166   0.57829   0.00000
 136        2S         -0.00509   0.00000   0.00268   0.00734   0.00000
 137        2PX        -0.00003   0.00000   0.00000   0.00004   0.00000
 138        2PY         0.00000  -0.00001   0.00000   0.00000   0.00000
 139        2PZ         0.00001   0.00000   0.00000  -0.00001   0.00000
 140        3S          0.00261   0.00000  -0.00124  -0.00332   0.00000
 141        3PX         0.00016   0.00000   0.00003  -0.00017   0.00000
 142        3PY         0.00000   0.00006   0.00000   0.00000   0.00000
 143        3PZ        -0.00006   0.00000   0.00003   0.00002   0.00000
 144        4S         -0.00380   0.00000   0.00165   0.00428   0.00000
 145        4PX        -0.00123   0.00000   0.00020   0.00130   0.00000
 146        4PY         0.00000   0.00022   0.00000   0.00000   0.00037
 147        4PZ         0.00043   0.00000  -0.00028  -0.00016   0.00000
 148        5D 0        0.00001   0.00000   0.00001  -0.00005   0.00000
 149        5D+1        0.00002   0.00000  -0.00002  -0.00001   0.00000
 150        5D-1        0.00000  -0.00002   0.00000   0.00000  -0.00002
 151        5D+2       -0.00006   0.00000   0.00001   0.00006   0.00000
 152        5D-2        0.00000   0.00004   0.00000   0.00000   0.00005
 153 9   Cl 1S          0.40253   0.00000   0.21166  -0.57829   0.00000
 154        2S          0.00509   0.00000   0.00268  -0.00734   0.00000
 155        2PX        -0.00003   0.00000   0.00000   0.00004   0.00000
 156        2PY         0.00000  -0.00001   0.00000   0.00000   0.00000
 157        2PZ        -0.00001   0.00000   0.00000   0.00001   0.00000
 158        3S         -0.00261   0.00000  -0.00124   0.00332   0.00000
 159        3PX         0.00016   0.00000  -0.00003  -0.00017   0.00000
 160        3PY         0.00000   0.00006   0.00000   0.00000   0.00000
 161        3PZ         0.00006   0.00000   0.00003  -0.00002   0.00000
 162        4S          0.00380   0.00000   0.00165  -0.00428   0.00000
 163        4PX        -0.00123   0.00000  -0.00020   0.00130   0.00000
 164        4PY         0.00000   0.00022   0.00000   0.00000   0.00037
 165        4PZ        -0.00043   0.00000  -0.00028   0.00016   0.00000
 166        5D 0       -0.00001   0.00000   0.00001   0.00005   0.00000
 167        5D+1        0.00002   0.00000   0.00002  -0.00001   0.00000
 168        5D-1        0.00000  -0.00002   0.00000   0.00000  -0.00002
 169        5D+2        0.00006   0.00000   0.00001  -0.00006   0.00000
 170        5D-2        0.00000  -0.00004   0.00000   0.00000  -0.00005
 171 10  Cl 1S          0.00000  -0.40253   0.21166   0.00000  -0.57829
 172        2S          0.00000  -0.00509   0.00268   0.00000  -0.00734
 173        2PX        -0.00001   0.00000   0.00000   0.00000   0.00000
 174        2PY         0.00000  -0.00003   0.00000   0.00000  -0.00004
 175        2PZ         0.00000   0.00001   0.00000   0.00000   0.00001
 176        3S          0.00000   0.00261  -0.00124   0.00000   0.00332
 177        3PX         0.00006   0.00000   0.00000   0.00000   0.00000
 178        3PY         0.00000   0.00016   0.00003   0.00000   0.00017
 179        3PZ         0.00000  -0.00006   0.00003   0.00000  -0.00002
 180        4S          0.00000  -0.00380   0.00165   0.00000  -0.00428
 181        4PX         0.00022   0.00000   0.00000  -0.00037   0.00000
 182        4PY         0.00000  -0.00123   0.00020   0.00000  -0.00130
 183        4PZ         0.00000   0.00043  -0.00028   0.00000   0.00016
 184        5D 0        0.00000   0.00001   0.00001   0.00000   0.00005
 185        5D+1       -0.00002   0.00000   0.00000   0.00002   0.00000
 186        5D-1        0.00000   0.00002  -0.00002   0.00000   0.00001
 187        5D+2        0.00000   0.00006  -0.00001   0.00000   0.00006
 188        5D-2        0.00004   0.00000   0.00000  -0.00005   0.00000
                           6         7         8         9        10
                        (B1)--O   (A1)--O   (B2)--O   (E)--O    (E)--O
     Eigenvalues --  -101.24122-101.24121-101.24121  -9.17528  -9.17528
   1 1   Mo 1S          0.00000  -0.00013   0.00000   0.00000   0.00000
   2        2S          0.00000   0.00007   0.00000   0.00000   0.00000
   3        3S          0.00000  -0.00813   0.00000   0.00000   0.00000
   4        4PX         0.00000   0.00000   0.00000   0.00000  -0.00177
   5        4PY         0.00000   0.00000   0.00000   0.00177   0.00000
   6        4PZ         0.00000   0.00002   0.00000   0.00000   0.00000
   7        5PX         0.00000   0.00000   0.00000   0.00000  -0.02069
   8        5PY         0.00000   0.00000   0.00000   0.02069   0.00000
   9        5PZ         0.00000   0.00085   0.00000   0.00000   0.00000
  10        6PX         0.00000   0.00000   0.00000   0.00000  -0.00029
  11        6PY         0.00000   0.00000   0.00000   0.00029   0.00000
  12        6PZ         0.00000   0.00113   0.00000   0.00000   0.00000
  13        7D 0        0.00000  -0.00004   0.00000   0.00000   0.00000
  14        7D+1        0.00000   0.00000   0.00000   0.00000  -0.00021
  15        7D-1        0.00000   0.00000   0.00000   0.00021   0.00000
  16        7D+2        0.00000   0.00000   0.00002   0.00000   0.00000
  17        7D-2        0.00008   0.00000   0.00000   0.00000   0.00000
  18        8D 0        0.00000   0.00052   0.00000   0.00000   0.00000
  19        8D+1        0.00000   0.00000   0.00000   0.00000  -0.00400
  20        8D-1        0.00000   0.00000   0.00000   0.00400   0.00000
  21        8D+2        0.00000   0.00000   0.00161   0.00000   0.00000
  22        8D-2       -0.00010   0.00000   0.00000   0.00000   0.00000
  23 2   Mo 1S          0.00000   0.00010   0.00000   0.00000   0.00000
  24        2S          0.00000  -0.00004   0.00000   0.00000   0.00000
  25        3S          0.00000   0.00617   0.00000   0.00000   0.00000
  26        4PX         0.00000   0.00000   0.00000   0.00000  -0.00164
  27        4PY         0.00000   0.00000   0.00000   0.00164   0.00000
  28        4PZ         0.00000   0.00006   0.00000   0.00000   0.00000
  29        5PX         0.00000   0.00000   0.00000   0.00000  -0.01942
  30        5PY         0.00000   0.00000   0.00000   0.01942   0.00000
  31        5PZ         0.00000   0.00120   0.00000   0.00000   0.00000
  32        6PX         0.00000   0.00000   0.00000   0.00000  -0.00022
  33        6PY         0.00000   0.00000   0.00000   0.00022   0.00000
  34        6PZ         0.00000   0.00067   0.00000   0.00000   0.00000
  35        7D 0        0.00000   0.00001   0.00000   0.00000   0.00000
  36        7D+1        0.00000   0.00000   0.00000   0.00000   0.00022
  37        7D-1        0.00000   0.00000   0.00000  -0.00022   0.00000
  38        7D+2        0.00000   0.00000  -0.00008   0.00000   0.00000
  39        7D-2       -0.00002   0.00000   0.00000   0.00000   0.00000
  40        8D 0        0.00000   0.00002   0.00000   0.00000   0.00000
  41        8D+1        0.00000   0.00000   0.00000   0.00000   0.00393
  42        8D-1        0.00000   0.00000   0.00000  -0.00393   0.00000
  43        8D+2        0.00000   0.00000   0.00010   0.00000   0.00000
  44        8D-2       -0.00161   0.00000   0.00000   0.00000   0.00000
  45 3   Cl 1S          0.49823  -0.21167   0.00000  -0.09778   0.09778
  46        2S          0.00634  -0.00270   0.00000   0.35216  -0.35216
  47        2PX        -0.00003   0.00001   0.00000  -0.00053   0.00047
  48        2PY        -0.00003   0.00001   0.00000  -0.00047   0.00053
  49        2PZ         0.00000   0.00000   0.00000   0.00009  -0.00009
  50        3S         -0.00264   0.00107   0.00000   0.01654  -0.01654
  51        3PX         0.00012  -0.00004  -0.00002  -0.00039   0.00067
  52        3PY         0.00012  -0.00004   0.00002  -0.00067   0.00039
  53        3PZ        -0.00002   0.00000   0.00000   0.00024  -0.00024
  54        4S          0.00264  -0.00103   0.00000  -0.01684   0.01684
  55        4PX        -0.00067   0.00016   0.00000   0.00435  -0.00293
  56        4PY        -0.00067   0.00016   0.00000   0.00293  -0.00435
  57        4PZ         0.00028   0.00004   0.00000  -0.00162   0.00162
  58        5D 0       -0.00003   0.00001   0.00000   0.00003  -0.00003
  59        5D+1       -0.00004   0.00001   0.00000   0.00008   0.00003
  60        5D-1       -0.00004   0.00001   0.00000  -0.00003  -0.00008
  61        5D+2        0.00000   0.00000   0.00001  -0.00016  -0.00016
  62        5D-2        0.00005  -0.00001   0.00000  -0.00018   0.00018
  63 4   Cl 1S         -0.49823  -0.21167   0.00000  -0.09778  -0.09778
  64        2S         -0.00634  -0.00270   0.00000   0.35216   0.35216
  65        2PX        -0.00003  -0.00001   0.00000   0.00053   0.00047
  66        2PY         0.00003   0.00001   0.00000  -0.00047  -0.00053
  67        2PZ         0.00000   0.00000   0.00000   0.00009   0.00009
  68        3S          0.00264   0.00107   0.00000   0.01654   0.01654
  69        3PX         0.00012   0.00004   0.00002   0.00039   0.00067
  70        3PY        -0.00012  -0.00004   0.00002  -0.00067  -0.00039
  71        3PZ         0.00002   0.00000   0.00000   0.00024   0.00024
  72        4S         -0.00264  -0.00103   0.00000  -0.01684  -0.01684
  73        4PX        -0.00067  -0.00016   0.00000  -0.00435  -0.00293
  74        4PY         0.00067   0.00016   0.00000   0.00293   0.00435
  75        4PZ        -0.00028   0.00004   0.00000  -0.00162  -0.00162
  76        5D 0        0.00003   0.00001   0.00000   0.00003   0.00003
  77        5D+1       -0.00004  -0.00001   0.00000  -0.00008   0.00003
  78        5D-1        0.00004   0.00001   0.00000  -0.00003   0.00008
  79        5D+2        0.00000   0.00000   0.00001  -0.00016   0.00016
  80        5D-2        0.00005   0.00001   0.00000   0.00018   0.00018
  81 5   Cl 1S         -0.49823  -0.21167   0.00000   0.09778   0.09778
  82        2S         -0.00634  -0.00270   0.00000  -0.35216  -0.35216
  83        2PX         0.00003   0.00001   0.00000   0.00053   0.00047
  84        2PY        -0.00003  -0.00001   0.00000  -0.00047  -0.00053
  85        2PZ         0.00000   0.00000   0.00000  -0.00009  -0.00009
  86        3S          0.00264   0.00107   0.00000  -0.01654  -0.01654
  87        3PX        -0.00012  -0.00004  -0.00002   0.00039   0.00067
  88        3PY         0.00012   0.00004  -0.00002  -0.00067  -0.00039
  89        3PZ         0.00002   0.00000   0.00000  -0.00024  -0.00024
  90        4S         -0.00264  -0.00103   0.00000   0.01684   0.01684
  91        4PX         0.00067   0.00016   0.00000  -0.00435  -0.00293
  92        4PY        -0.00067  -0.00016   0.00000   0.00293   0.00435
  93        4PZ        -0.00028   0.00004   0.00000   0.00162   0.00162
  94        5D 0        0.00003   0.00001   0.00000  -0.00003  -0.00003
  95        5D+1        0.00004   0.00001   0.00000  -0.00008   0.00003
  96        5D-1       -0.00004  -0.00001   0.00000  -0.00003   0.00008
  97        5D+2        0.00000   0.00000   0.00001   0.00016  -0.00016
  98        5D-2        0.00005   0.00001   0.00000  -0.00018  -0.00018
  99 6   Cl 1S          0.49823  -0.21167   0.00000   0.09778  -0.09778
 100        2S          0.00634  -0.00270   0.00000  -0.35216   0.35216
 101        2PX         0.00003  -0.00001   0.00000  -0.00053   0.00047
 102        2PY         0.00003  -0.00001   0.00000  -0.00047   0.00053
 103        2PZ         0.00000   0.00000   0.00000  -0.00009   0.00009
 104        3S         -0.00264   0.00107   0.00000  -0.01654   0.01654
 105        3PX        -0.00012   0.00004   0.00002  -0.00039   0.00067
 106        3PY        -0.00012   0.00004  -0.00002  -0.00067   0.00039
 107        3PZ        -0.00002   0.00000   0.00000  -0.00024   0.00024
 108        4S          0.00264  -0.00103   0.00000   0.01684  -0.01684
 109        4PX         0.00067  -0.00016   0.00000   0.00435  -0.00293
 110        4PY         0.00067  -0.00016   0.00000   0.00293  -0.00435
 111        4PZ         0.00028   0.00004   0.00000   0.00162  -0.00162
 112        5D 0       -0.00003   0.00001   0.00000  -0.00003   0.00003
 113        5D+1        0.00004  -0.00001   0.00000   0.00008   0.00003
 114        5D-1        0.00004  -0.00001   0.00000  -0.00003  -0.00008
 115        5D+2        0.00000   0.00000   0.00001   0.00016   0.00016
 116        5D-2        0.00005  -0.00001   0.00000   0.00018  -0.00018
 117 7   Cl 1S          0.00000   0.45104   0.49823  -0.14707   0.00000
 118        2S          0.00000   0.00574   0.00634   0.52966   0.00000
 119        2PX        -0.00001   0.00000   0.00000   0.00000  -0.00006
 120        2PY         0.00000  -0.00002  -0.00004  -0.00107   0.00000
 121        2PZ         0.00000   0.00000   0.00000  -0.00014   0.00000
 122        3S          0.00000  -0.00243  -0.00264   0.02477   0.00000
 123        3PX         0.00003   0.00000   0.00000   0.00000   0.00028
 124        3PY         0.00000   0.00005   0.00018  -0.00111   0.00000
 125        3PZ         0.00000   0.00002   0.00002  -0.00035   0.00000
 126        4S          0.00000   0.00270   0.00264  -0.02503   0.00000
 127        4PX        -0.00001   0.00000   0.00000   0.00000   0.00152
 128        4PY         0.00000  -0.00047  -0.00095   0.00762   0.00000
 129        4PZ         0.00000  -0.00018  -0.00028   0.00232   0.00000
 130        5D 0        0.00000  -0.00001  -0.00003   0.00006   0.00000
 131        5D+1        0.00000   0.00000   0.00000   0.00000  -0.00011
 132        5D-1        0.00000   0.00003   0.00005  -0.00004   0.00000
 133        5D+2        0.00000  -0.00002  -0.00005   0.00026   0.00000
 134        5D-2       -0.00001   0.00000   0.00000   0.00000  -0.00024
 135 8   Cl 1S          0.00000   0.45104  -0.49823   0.00000  -0.14707
 136        2S          0.00000   0.00574  -0.00634   0.00000   0.52966
 137        2PX         0.00000   0.00002  -0.00004   0.00000   0.00107
 138        2PY         0.00001   0.00000   0.00000   0.00006   0.00000
 139        2PZ         0.00000   0.00000   0.00000   0.00000  -0.00014
 140        3S          0.00000  -0.00243   0.00264   0.00000   0.02477
 141        3PX         0.00000  -0.00005   0.00018   0.00000   0.00111
 142        3PY        -0.00003   0.00000   0.00000  -0.00028   0.00000
 143        3PZ         0.00000   0.00002  -0.00002   0.00000  -0.00035
 144        4S          0.00000   0.00270  -0.00264   0.00000  -0.02503
 145        4PX         0.00000   0.00047  -0.00095   0.00000  -0.00762
 146        4PY         0.00001   0.00000   0.00000  -0.00152   0.00000
 147        4PZ         0.00000  -0.00018   0.00028   0.00000   0.00232
 148        5D 0        0.00000  -0.00001   0.00003   0.00000   0.00006
 149        5D+1        0.00000  -0.00003   0.00005   0.00000   0.00004
 150        5D-1        0.00000   0.00000   0.00000   0.00011   0.00000
 151        5D+2        0.00000   0.00002  -0.00005   0.00000  -0.00026
 152        5D-2       -0.00001   0.00000   0.00000  -0.00024   0.00000
 153 9   Cl 1S          0.00000   0.45104  -0.49823   0.00000   0.14707
 154        2S          0.00000   0.00574  -0.00634   0.00000  -0.52966
 155        2PX         0.00000  -0.00002   0.00004   0.00000   0.00107
 156        2PY        -0.00001   0.00000   0.00000   0.00006   0.00000
 157        2PZ         0.00000   0.00000   0.00000   0.00000   0.00014
 158        3S          0.00000  -0.00243   0.00264   0.00000  -0.02477
 159        3PX         0.00000   0.00005  -0.00018   0.00000   0.00111
 160        3PY         0.00003   0.00000   0.00000  -0.00028   0.00000
 161        3PZ         0.00000   0.00002  -0.00002   0.00000   0.00035
 162        4S          0.00000   0.00270  -0.00264   0.00000   0.02503
 163        4PX         0.00000  -0.00047   0.00095   0.00000  -0.00762
 164        4PY        -0.00001   0.00000   0.00000  -0.00152   0.00000
 165        4PZ         0.00000  -0.00018   0.00028   0.00000  -0.00232
 166        5D 0        0.00000  -0.00001   0.00003   0.00000  -0.00006
 167        5D+1        0.00000   0.00003  -0.00005   0.00000   0.00004
 168        5D-1        0.00000   0.00000   0.00000   0.00011   0.00000
 169        5D+2        0.00000   0.00002  -0.00005   0.00000   0.00026
 170        5D-2       -0.00001   0.00000   0.00000   0.00024   0.00000
 171 10  Cl 1S          0.00000   0.45104   0.49823   0.14707   0.00000
 172        2S          0.00000   0.00574   0.00634  -0.52966   0.00000
 173        2PX         0.00001   0.00000   0.00000   0.00000  -0.00006
 174        2PY         0.00000   0.00002   0.00004  -0.00107   0.00000
 175        2PZ         0.00000   0.00000   0.00000   0.00014   0.00000
 176        3S          0.00000  -0.00243  -0.00264  -0.02477   0.00000
 177        3PX        -0.00003   0.00000   0.00000   0.00000   0.00028
 178        3PY         0.00000  -0.00005  -0.00018  -0.00111   0.00000
 179        3PZ         0.00000   0.00002   0.00002   0.00035   0.00000
 180        4S          0.00000   0.00270   0.00264   0.02503   0.00000
 181        4PX         0.00001   0.00000   0.00000   0.00000   0.00152
 182        4PY         0.00000   0.00047   0.00095   0.00762   0.00000
 183        4PZ         0.00000  -0.00018  -0.00028  -0.00232   0.00000
 184        5D 0        0.00000  -0.00001  -0.00003  -0.00006   0.00000
 185        5D+1        0.00000   0.00000   0.00000   0.00000  -0.00011
 186        5D-1        0.00000  -0.00003  -0.00005  -0.00004   0.00000
 187        5D+2        0.00000  -0.00002  -0.00005  -0.00026   0.00000
 188        5D-2       -0.00001   0.00000   0.00000   0.00000   0.00024
                          11        12        13        14        15
                        (E)--O    (E)--O    (A1)--O   (A1)--O   (B2)--O
     Eigenvalues --    -9.17522  -9.17522  -9.17521  -9.17518  -9.17518
   1 1   Mo 1S          0.00000   0.00000   0.00023  -0.00059   0.00000
   2        2S          0.00000   0.00000  -0.00019   0.00021   0.00000
   3        3S          0.00000   0.00000   0.01846  -0.04064   0.00000
   4        4PX         0.00000  -0.00191   0.00000   0.00000   0.00000
   5        4PY         0.00191   0.00000   0.00000   0.00000   0.00000
   6        4PZ         0.00000   0.00000   0.00032   0.00032   0.00000
   7        5PX         0.00000  -0.01976   0.00000   0.00000   0.00000
   8        5PY         0.01976   0.00000   0.00000   0.00000   0.00000
   9        5PZ         0.00000   0.00000   0.00242   0.00660   0.00000
  10        6PX         0.00000  -0.00139   0.00000   0.00000   0.00000
  11        6PY         0.00139   0.00000   0.00000   0.00000   0.00000
  12        6PZ         0.00000   0.00000  -0.00396   0.00494   0.00000
  13        7D 0        0.00000   0.00000   0.00031  -0.00013   0.00000
  14        7D+1        0.00000   0.00012   0.00000   0.00000   0.00000
  15        7D-1       -0.00012   0.00000   0.00000   0.00000   0.00000
  16        7D+2        0.00000   0.00000   0.00000   0.00000   0.00004
  17        7D-2        0.00000   0.00000   0.00000   0.00000   0.00000
  18        8D 0        0.00000   0.00000  -0.00436   0.00090   0.00000
  19        8D+1        0.00000  -0.00134   0.00000   0.00000   0.00000
  20        8D-1        0.00134   0.00000   0.00000   0.00000   0.00000
  21        8D+2        0.00000   0.00000   0.00000   0.00000  -0.00850
  22        8D-2        0.00000   0.00000   0.00000   0.00000   0.00000
  23 2   Mo 1S          0.00000   0.00000   0.00015   0.00062   0.00000
  24        2S          0.00000   0.00000  -0.00016  -0.00024   0.00000
  25        3S          0.00000   0.00000   0.01289   0.04275   0.00000
  26        4PX         0.00000   0.00202   0.00000   0.00000   0.00000
  27        4PY        -0.00202   0.00000   0.00000   0.00000   0.00000
  28        4PZ         0.00000   0.00000  -0.00035   0.00028   0.00000
  29        5PX         0.00000   0.02099   0.00000   0.00000   0.00000
  30        5PY        -0.02099   0.00000   0.00000   0.00000   0.00000
  31        5PZ         0.00000   0.00000  -0.00326   0.00620   0.00000
  32        6PX         0.00000   0.00141   0.00000   0.00000   0.00000
  33        6PY        -0.00141   0.00000   0.00000   0.00000   0.00000
  34        6PZ         0.00000   0.00000   0.00326   0.00542   0.00000
  35        7D 0        0.00000   0.00000   0.00029   0.00017   0.00000
  36        7D+1        0.00000   0.00011   0.00000   0.00000   0.00000
  37        7D-1       -0.00011   0.00000   0.00000   0.00000   0.00000
  38        7D+2        0.00000   0.00000   0.00000   0.00000   0.00040
  39        7D-2        0.00000   0.00000   0.00000   0.00000   0.00000
  40        8D 0        0.00000   0.00000  -0.00419  -0.00148   0.00000
  41        8D+1        0.00000  -0.00160   0.00000   0.00000   0.00000
  42        8D-1        0.00160   0.00000   0.00000   0.00000   0.00000
  43        8D+2        0.00000   0.00000   0.00000   0.00000  -0.00053
  44        8D-2        0.00000   0.00000   0.00000   0.00000   0.00000
  45 3   Cl 1S          0.10403  -0.10403  -0.09394  -0.10756   0.00000
  46        2S         -0.37444   0.37444   0.33815   0.38702   0.00000
  47        2PX         0.00054  -0.00055  -0.00056  -0.00059  -0.00002
  48        2PY         0.00055  -0.00054  -0.00056  -0.00059   0.00002
  49        2PZ        -0.00012   0.00012   0.00010   0.00013   0.00000
  50        3S         -0.01636   0.01636   0.01484   0.01623   0.00000
  51        3PX         0.00048  -0.00043  -0.00002  -0.00029   0.00011
  52        3PY         0.00043  -0.00048  -0.00002  -0.00029  -0.00011
  53        3PZ        -0.00007   0.00007   0.00019   0.00009   0.00000
  54        4S          0.01447  -0.01447  -0.01313  -0.01216   0.00000
  55        4PX        -0.00379   0.00206   0.00128   0.00146  -0.00003
  56        4PY        -0.00206   0.00379   0.00128   0.00146   0.00003
  57        4PZ         0.00039  -0.00039  -0.00169  -0.00050   0.00000
  58        5D 0       -0.00014   0.00014  -0.00006  -0.00001   0.00000
  59        5D+1       -0.00003  -0.00004   0.00007   0.00006   0.00001
  60        5D-1        0.00004   0.00003   0.00007   0.00006  -0.00001
  61        5D+2        0.00014   0.00014   0.00000   0.00000  -0.00007
  62        5D-2        0.00011  -0.00011  -0.00001  -0.00002   0.00000
  63 4   Cl 1S          0.10403   0.10403  -0.09394  -0.10756   0.00000
  64        2S         -0.37444  -0.37444   0.33815   0.38702   0.00000
  65        2PX        -0.00054  -0.00055   0.00056   0.00059   0.00002
  66        2PY         0.00055   0.00054  -0.00056  -0.00059   0.00002
  67        2PZ        -0.00012  -0.00012   0.00010   0.00013   0.00000
  68        3S         -0.01636  -0.01636   0.01484   0.01623   0.00000
  69        3PX        -0.00048  -0.00043   0.00002   0.00029  -0.00011
  70        3PY         0.00043   0.00048  -0.00002  -0.00029  -0.00011
  71        3PZ        -0.00007  -0.00007   0.00019   0.00009   0.00000
  72        4S          0.01447   0.01447  -0.01313  -0.01216   0.00000
  73        4PX         0.00379   0.00206  -0.00128  -0.00146   0.00003
  74        4PY        -0.00206  -0.00379   0.00128   0.00146   0.00003
  75        4PZ         0.00039   0.00039  -0.00169  -0.00050   0.00000
  76        5D 0       -0.00014  -0.00014  -0.00006  -0.00001   0.00000
  77        5D+1        0.00003  -0.00004  -0.00007  -0.00006  -0.00001
  78        5D-1        0.00004  -0.00003   0.00007   0.00006  -0.00001
  79        5D+2        0.00014  -0.00014   0.00000   0.00000  -0.00007
  80        5D-2       -0.00011  -0.00011   0.00001   0.00002   0.00000
  81 5   Cl 1S         -0.10403  -0.10403  -0.09394  -0.10756   0.00000
  82        2S          0.37444   0.37444   0.33815   0.38702   0.00000
  83        2PX        -0.00054  -0.00055  -0.00056  -0.00059  -0.00002
  84        2PY         0.00055   0.00054   0.00056   0.00059  -0.00002
  85        2PZ         0.00012   0.00012   0.00010   0.00013   0.00000
  86        3S          0.01636   0.01636   0.01484   0.01623   0.00000
  87        3PX        -0.00048  -0.00043  -0.00002  -0.00029   0.00011
  88        3PY         0.00043   0.00048   0.00002   0.00029   0.00011
  89        3PZ         0.00007   0.00007   0.00019   0.00009   0.00000
  90        4S         -0.01447  -0.01447  -0.01313  -0.01216   0.00000
  91        4PX         0.00379   0.00206   0.00128   0.00146  -0.00003
  92        4PY        -0.00206  -0.00379  -0.00128  -0.00146  -0.00003
  93        4PZ        -0.00039  -0.00039  -0.00169  -0.00050   0.00000
  94        5D 0        0.00014   0.00014  -0.00006  -0.00001   0.00000
  95        5D+1        0.00003  -0.00004   0.00007   0.00006   0.00001
  96        5D-1        0.00004  -0.00003  -0.00007  -0.00006   0.00001
  97        5D+2       -0.00014   0.00014   0.00000   0.00000  -0.00007
  98        5D-2        0.00011   0.00011   0.00001   0.00002   0.00000
  99 6   Cl 1S         -0.10403   0.10403  -0.09394  -0.10756   0.00000
 100        2S          0.37444  -0.37444   0.33815   0.38702   0.00000
 101        2PX         0.00054  -0.00055   0.00056   0.00059   0.00002
 102        2PY         0.00055  -0.00054   0.00056   0.00059  -0.00002
 103        2PZ         0.00012  -0.00012   0.00010   0.00013   0.00000
 104        3S          0.01636  -0.01636   0.01484   0.01623   0.00000
 105        3PX         0.00048  -0.00043   0.00002   0.00029  -0.00011
 106        3PY         0.00043  -0.00048   0.00002   0.00029   0.00011
 107        3PZ         0.00007  -0.00007   0.00019   0.00009   0.00000
 108        4S         -0.01447   0.01447  -0.01313  -0.01216   0.00000
 109        4PX        -0.00379   0.00206  -0.00128  -0.00146   0.00003
 110        4PY        -0.00206   0.00379  -0.00128  -0.00146  -0.00003
 111        4PZ        -0.00039   0.00039  -0.00169  -0.00050   0.00000
 112        5D 0        0.00014  -0.00014  -0.00006  -0.00001   0.00000
 113        5D+1       -0.00003  -0.00004  -0.00007  -0.00006  -0.00001
 114        5D-1        0.00004   0.00003  -0.00007  -0.00006   0.00001
 115        5D+2       -0.00014  -0.00014   0.00000   0.00000  -0.00007
 116        5D-2       -0.00011   0.00011  -0.00001  -0.00002   0.00000
 117 7   Cl 1S         -0.13833   0.00000  -0.10754   0.09396  -0.14282
 118        2S          0.49790   0.00000   0.38708  -0.33808   0.51388
 119        2PX         0.00000   0.00001   0.00000   0.00000   0.00000
 120        2PY        -0.00103   0.00000  -0.00090   0.00072  -0.00103
 121        2PZ        -0.00016   0.00000  -0.00011   0.00011  -0.00017
 122        3S          0.02165   0.00000   0.01689  -0.01409   0.02150
 123        3PX         0.00000  -0.00007   0.00000   0.00000   0.00000
 124        3PY        -0.00084   0.00000  -0.00008   0.00040  -0.00105
 125        3PZ        -0.00008   0.00000  -0.00021   0.00006  -0.00014
 126        4S         -0.01896   0.00000  -0.01465   0.01029  -0.01503
 127        4PX         0.00000   0.00163   0.00000   0.00000   0.00000
 128        4PY         0.00540   0.00000   0.00208  -0.00180   0.00505
 129        4PZ         0.00040   0.00000   0.00174  -0.00027   0.00146
 130        5D 0        0.00019   0.00000  -0.00006   0.00000   0.00011
 131        5D+1        0.00000  -0.00006   0.00000   0.00000   0.00000
 132        5D-1        0.00002   0.00000  -0.00010   0.00007  -0.00018
 133        5D+2        0.00014   0.00000   0.00001  -0.00001   0.00017
 134        5D-2        0.00000  -0.00018   0.00000   0.00000   0.00000
 135 8   Cl 1S          0.00000  -0.13833  -0.10754   0.09396   0.14282
 136        2S          0.00000   0.49790   0.38708  -0.33808  -0.51388
 137        2PX         0.00000   0.00103   0.00090  -0.00072  -0.00103
 138        2PY        -0.00001   0.00000   0.00000   0.00000   0.00000
 139        2PZ         0.00000  -0.00016  -0.00011   0.00011   0.00017
 140        3S          0.00000   0.02165   0.01689  -0.01409  -0.02150
 141        3PX         0.00000   0.00084   0.00008  -0.00040  -0.00105
 142        3PY         0.00007   0.00000   0.00000   0.00000   0.00000
 143        3PZ         0.00000  -0.00008  -0.00021   0.00006   0.00014
 144        4S          0.00000  -0.01896  -0.01465   0.01029   0.01503
 145        4PX         0.00000  -0.00540  -0.00208   0.00180   0.00505
 146        4PY        -0.00163   0.00000   0.00000   0.00000   0.00000
 147        4PZ         0.00000   0.00040   0.00174  -0.00027  -0.00146
 148        5D 0        0.00000   0.00019  -0.00006   0.00000  -0.00011
 149        5D+1        0.00000  -0.00002   0.00010  -0.00007  -0.00018
 150        5D-1        0.00006   0.00000   0.00000   0.00000   0.00000
 151        5D+2        0.00000  -0.00014  -0.00001   0.00001   0.00017
 152        5D-2       -0.00018   0.00000   0.00000   0.00000   0.00000
 153 9   Cl 1S          0.00000   0.13833  -0.10754   0.09396   0.14282
 154        2S          0.00000  -0.49790   0.38708  -0.33808  -0.51388
 155        2PX         0.00000   0.00103  -0.00090   0.00072   0.00103
 156        2PY        -0.00001   0.00000   0.00000   0.00000   0.00000
 157        2PZ         0.00000   0.00016  -0.00011   0.00011   0.00017
 158        3S          0.00000  -0.02165   0.01689  -0.01409  -0.02150
 159        3PX         0.00000   0.00084  -0.00008   0.00040   0.00105
 160        3PY         0.00007   0.00000   0.00000   0.00000   0.00000
 161        3PZ         0.00000   0.00008  -0.00021   0.00006   0.00014
 162        4S          0.00000   0.01896  -0.01465   0.01029   0.01503
 163        4PX         0.00000  -0.00540   0.00208  -0.00180  -0.00505
 164        4PY        -0.00163   0.00000   0.00000   0.00000   0.00000
 165        4PZ         0.00000  -0.00040   0.00174  -0.00027  -0.00146
 166        5D 0        0.00000  -0.00019  -0.00006   0.00000  -0.00011
 167        5D+1        0.00000  -0.00002  -0.00010   0.00007   0.00018
 168        5D-1        0.00006   0.00000   0.00000   0.00000   0.00000
 169        5D+2        0.00000   0.00014  -0.00001   0.00001   0.00017
 170        5D-2        0.00018   0.00000   0.00000   0.00000   0.00000
 171 10  Cl 1S          0.13833   0.00000  -0.10754   0.09396  -0.14282
 172        2S         -0.49790   0.00000   0.38708  -0.33808   0.51388
 173        2PX         0.00000   0.00001   0.00000   0.00000   0.00000
 174        2PY        -0.00103   0.00000   0.00090  -0.00072   0.00103
 175        2PZ         0.00016   0.00000  -0.00011   0.00011  -0.00017
 176        3S         -0.02165   0.00000   0.01689  -0.01409   0.02150
 177        3PX         0.00000  -0.00007   0.00000   0.00000   0.00000
 178        3PY        -0.00084   0.00000   0.00008  -0.00040   0.00105
 179        3PZ         0.00008   0.00000  -0.00021   0.00006  -0.00014
 180        4S          0.01896   0.00000  -0.01465   0.01029  -0.01503
 181        4PX         0.00000   0.00163   0.00000   0.00000   0.00000
 182        4PY         0.00540   0.00000  -0.00208   0.00180  -0.00505
 183        4PZ        -0.00040   0.00000   0.00174  -0.00027   0.00146
 184        5D 0       -0.00019   0.00000  -0.00006   0.00000   0.00011
 185        5D+1        0.00000  -0.00006   0.00000   0.00000   0.00000
 186        5D-1        0.00002   0.00000   0.00010  -0.00007   0.00018
 187        5D+2       -0.00014   0.00000   0.00001  -0.00001   0.00017
 188        5D-2        0.00000   0.00018   0.00000   0.00000   0.00000
                          16        17        18        19        20
                        (B1)--O   (A1)--O   (E)--O    (E)--O    (A1)--O
     Eigenvalues --    -9.17518  -6.93436  -6.93436  -6.93436  -6.93435
   1 1   Mo 1S          0.00000   0.00131   0.00000   0.00000  -0.00037
   2        2S          0.00000  -0.00026   0.00000   0.00000   0.00086
   3        3S          0.00000   0.00490   0.00000   0.00000  -0.00263
   4        4PX         0.00000   0.00000  -0.00096   0.00000   0.00000
   5        4PY         0.00000   0.00000   0.00000  -0.00096   0.00000
   6        4PZ         0.00000  -0.00073   0.00000   0.00000   0.00038
   7        5PX         0.00000   0.00000  -0.00325   0.00000   0.00000
   8        5PY         0.00000   0.00000   0.00000  -0.00325   0.00000
   9        5PZ         0.00000   0.00089   0.00000   0.00000   0.00615
  10        6PX         0.00000   0.00000   0.00442   0.00000   0.00000
  11        6PY         0.00000   0.00000   0.00000   0.00442   0.00000
  12        6PZ         0.00000  -0.00069   0.00000   0.00000  -0.00125
  13        7D 0        0.00000   0.00010   0.00000   0.00000   0.00028
  14        7D+1        0.00000   0.00000   0.00029   0.00000   0.00000
  15        7D-1        0.00000   0.00000   0.00000   0.00029   0.00000
  16        7D+2        0.00000   0.00000   0.00000   0.00000   0.00000
  17        7D-2       -0.00040   0.00000   0.00000   0.00000   0.00000
  18        8D 0        0.00000  -0.00398   0.00000   0.00000  -0.00178
  19        8D+1        0.00000   0.00000  -0.00130   0.00000   0.00000
  20        8D-1        0.00000   0.00000   0.00000  -0.00130   0.00000
  21        8D+2        0.00000   0.00000   0.00000   0.00000   0.00000
  22        8D-2        0.00052   0.00000   0.00000   0.00000   0.00000
  23 2   Mo 1S          0.00000   0.00095   0.00000   0.00000   0.00096
  24        2S          0.00000   0.00019   0.00000   0.00000  -0.00088
  25        3S          0.00000   0.00299   0.00000   0.00000   0.00468
  26        4PX         0.00000   0.00000   0.00049   0.00000   0.00000
  27        4PY         0.00000   0.00000   0.00000   0.00049   0.00000
  28        4PZ         0.00000   0.00046   0.00000   0.00000   0.00069
  29        5PX         0.00000   0.00000  -0.00033   0.00000   0.00000
  30        5PY         0.00000   0.00000   0.00000  -0.00033   0.00000
  31        5PZ         0.00000  -0.00377   0.00000   0.00000   0.00494
  32        6PX         0.00000   0.00000  -0.00317   0.00000   0.00000
  33        6PY         0.00000   0.00000   0.00000  -0.00317   0.00000
  34        6PZ         0.00000   0.00121   0.00000   0.00000  -0.00076
[...]
  65        2PX         1.99080
  66        2PY         1.99080
  67        2PZ         1.99140
  68        3S          1.39743
  69        3PX         1.19160
  70        3PY         1.19160
  71        3PZ         1.24300
  72        4S          0.54732
  73        4PX         0.56770
  74        4PY         0.56770
  75        4PZ         0.61749
  76        5D 0        0.00229
  77        5D+1        0.00198
  78        5D-1        0.00198
  79        5D+2        0.00270
  80        5D-2        0.00438
  81 5   Cl 1S          1.99962
  82        2S          1.99748
  83        2PX         1.99080
  84        2PY         1.99080
  85        2PZ         1.99140
  86        3S          1.39743
  87        3PX         1.19160
  88        3PY         1.19160
  89        3PZ         1.24300
  90        4S          0.54732
  91        4PX         0.56770
  92        4PY         0.56770
  93        4PZ         0.61749
  94        5D 0        0.00229
  95        5D+1        0.00198
  96        5D-1        0.00198
  97        5D+2        0.00270
  98        5D-2        0.00438
  99 6   Cl 1S          1.99962
 100        2S          1.99748
 101        2PX         1.99080
 102        2PY         1.99080
 103        2PZ         1.99140
 104        3S          1.39743
 105        3PX         1.19160
 106        3PY         1.19160
 107        3PZ         1.24300
 108        4S          0.54732
 109        4PX         0.56770
 110        4PY         0.56770
 111        4PZ         0.61749
 112        5D 0        0.00229
 113        5D+1        0.00198
 114        5D-1        0.00198
 115        5D+2        0.00270
 116        5D-2        0.00438
 117 7   Cl 1S          1.99962
 118        2S          1.99748
 119        2PX         1.99141
 120        2PY         1.99020
 121        2PZ         1.99140
 122        3S          1.39741
 123        3PX         1.23824
 124        3PY         1.14501
 125        3PZ         1.24311
 126        4S          0.54733
 127        4PX         0.58798
 128        4PY         0.54700
 129        4PZ         0.61744
 130        5D 0        0.00229
 131        5D+1        0.00029
 132        5D-1        0.00369
 133        5D+2        0.00439
 134        5D-2        0.00270
 135 8   Cl 1S          1.99962
 136        2S          1.99748
 137        2PX         1.99020
 138        2PY         1.99141
 139        2PZ         1.99140
 140        3S          1.39741
 141        3PX         1.14501
 142        3PY         1.23824
 143        3PZ         1.24311
 144        4S          0.54733
 145        4PX         0.54700
 146        4PY         0.58798
 147        4PZ         0.61744
 148        5D 0        0.00229
 149        5D+1        0.00369
 150        5D-1        0.00029
 151        5D+2        0.00439
 152        5D-2        0.00270
 153 9   Cl 1S          1.99962
 154        2S          1.99748
 155        2PX         1.99020
 156        2PY         1.99141
 157        2PZ         1.99140
 158        3S          1.39741
 159        3PX         1.14501
 160        3PY         1.23824
 161        3PZ         1.24311
 162        4S          0.54733
 163        4PX         0.54700
 164        4PY         0.58798
 165        4PZ         0.61744
 166        5D 0        0.00229
 167        5D+1        0.00369
 168        5D-1        0.00029
 169        5D+2        0.00439
 170        5D-2        0.00270
 171 10  Cl 1S          1.99962
 172        2S          1.99748
 173        2PX         1.99141
 174        2PY         1.99020
 175        2PZ         1.99140
 176        3S          1.39741
 177        3PX         1.23824
 178        3PY         1.14501
 179        3PZ         1.24311
 180        4S          0.54733
 181        4PX         0.58798
 182        4PY         0.54700
 183        4PZ         0.61744
 184        5D 0        0.00229
 185        5D+1        0.00029
 186        5D-1        0.00369
 187        5D+2        0.00439
 188        5D-2        0.00270
          Condensed to atoms (all electrons):
              1          2          3          4          5          6
     1  Mo  12.901994   0.024479   0.002858   0.002858   0.002858   0.002858
     2  Mo   0.024479  12.899160   0.208896   0.208896   0.208896   0.208896
     3  Cl   0.002858   0.208896  17.217916  -0.059637  -0.059637  -0.006347
     4  Cl   0.002858   0.208896  -0.059637  17.217916  -0.006347  -0.059637
     5  Cl   0.002858   0.208896  -0.059637  -0.006347  17.217916  -0.059637
     6  Cl   0.002858   0.208896  -0.006347  -0.059637  -0.059637  17.217916
     7  Cl   0.208715   0.002770   0.001433   0.001433   0.000176   0.000176
     8  Cl   0.208715   0.002770   0.000176   0.001433   0.000176   0.001433
     9  Cl   0.208715   0.002770   0.001433   0.000176   0.001433   0.000176
    10  Cl   0.208715   0.002770   0.000176   0.000176   0.001433   0.001433
              7          8          9         10
     1  Mo   0.208715   0.208715   0.208715   0.208715
     2  Mo   0.002770   0.002770   0.002770   0.002770
     3  Cl   0.001433   0.000176   0.001433   0.000176
     4  Cl   0.001433   0.001433   0.000176   0.000176
     5  Cl   0.000176   0.000176   0.001433   0.001433
     6  Cl   0.000176   0.001433   0.000176   0.001433
     7  Cl  17.217939  -0.059652  -0.059652  -0.006371
     8  Cl  -0.059652  17.217939  -0.006371  -0.059652
     9  Cl  -0.059652  -0.006371  17.217939  -0.059652
    10  Cl  -0.006371  -0.059652  -0.059652  17.217939
 Mulliken atomic charges:
              1
     1  Mo   0.227235
     2  Mo   0.229695
     3  Cl  -0.307266
     4  Cl  -0.307266
     5  Cl  -0.307266
     6  Cl  -0.307266
     7  Cl  -0.306966
     8  Cl  -0.306966
     9  Cl  -0.306966
    10  Cl  -0.306966
 Sum of Mulliken atomic charges =  -2.00000
 Mulliken charges with hydrogens summed into heavy atoms:
              1
     1  Mo   0.227235
     2  Mo   0.229695
     3  Cl  -0.307266
     4  Cl  -0.307266
     5  Cl  -0.307266
     6  Cl  -0.307266
     7  Cl  -0.306966
     8  Cl  -0.306966
     9  Cl  -0.306966
    10  Cl  -0.306966
 Sum of Mulliken charges with hydrogens summed into heavy atoms =  -2.00000
 Electronic spatial extent (au):  <R**2>=           4276.5698
 Charge=             -2.0000 electrons
 Dipole moment (field-independent basis, Debye):
    X=              0.0000    Y=              0.0000    Z=              0.0066  Tot=              0.0066
 Quadrupole moment (field-independent basis, Debye-Ang):
   XX=           -186.7672   YY=           -186.7672   ZZ=           -187.3225
   XY=              0.0000   XZ=              0.0000   YZ=              0.0000
 Traceless Quadrupole moment (field-independent basis, Debye-Ang):
   XX=              0.1851   YY=              0.1851   ZZ=             -0.3702
   XY=              0.0000   XZ=              0.0000   YZ=              0.0000
 Octapole moment (field-independent basis, Debye-Ang**2):
  XXX=              0.0000  YYY=              0.0000  ZZZ=              0.0922  XYY=              0.0000
  XXY=              0.0000  XXZ=              0.0309  XZZ=              0.0000  YZZ=              0.0000
  YYZ=              0.0309  XYZ=              0.0000
 Hexadecapole moment (field-independent basis, Debye-Ang**3):
 XXXX=          -1931.7246 YYYY=          -1931.7246 ZZZZ=          -2469.4472 XXXY=              0.0000
 XXXZ=              0.0000 YYYX=              0.0000 YYYZ=              0.0000 ZZZX=              0.0000
 ZZZY=              0.0000 XXYY=           -643.9133 XXZZ=           -794.2751 YYZZ=           -794.2751
 XXYZ=              0.0000 YYXZ=              0.0000 ZZXY=              0.0000
 N-N= 1.857354255728D+03 E-N=-1.279392327312D+04  KE= 3.720742905787D+03
 Symmetry A1   KE= 1.303453105341D+03
 Symmetry A2   KE= 5.525195213245D+02
 Symmetry B1   KE= 9.323851395608D+02
 Symmetry B2   KE= 9.323851395608D+02
 Orbital energies and kinetic energies (alpha):
                                 1                 2
   1         (E)--O         -101.241255        137.054860
   2         (E)--O         -101.241255        137.054860
   3         (A1)--O        -101.241228        137.058927
   4         (E)--O         -101.241227        137.058390
   5         (E)--O         -101.241227        137.058390
   6         (B1)--O        -101.241221        137.060158
   7         (A1)--O        -101.241213        137.060251
   8         (B2)--O        -101.241212        137.060158
   9         (E)--O           -9.175282         21.691139
  10         (E)--O           -9.175282         21.691139
  11         (E)--O           -9.175218         21.699970
  12         (E)--O           -9.175218         21.699970
  13         (A1)--O          -9.175213         21.700413
  14         (A1)--O          -9.175184         21.704536
  15         (B2)--O          -9.175183         21.704441
  16         (B1)--O          -9.175179         21.704446
  17         (A1)--O          -6.934359         20.534172
  18         (E)--O           -6.934356         20.533253
  19         (E)--O           -6.934356         20.533253
  20         (A1)--O          -6.934355         20.534464
  21         (E)--O           -6.934352         20.533280
  22         (E)--O           -6.934352         20.533280
  23         (B2)--O          -6.934349         20.533431
  24         (B1)--O          -6.934347         20.533466
  25         (A2)--O          -6.930564         20.540852
  26         (E)--O           -6.930559         20.542761
  27         (E)--O           -6.930559         20.542761
  28         (A2)--O          -6.930542         20.544503
  29         (E)--O           -6.930541         20.545522
  30         (E)--O           -6.930541         20.545522
  31         (B1)--O          -6.930536         20.547797
  32         (B2)--O          -6.930532         20.547804
  33         (A1)--O          -6.930073         20.539848
  34         (E)--O           -6.930060         20.542036
  35         (E)--O           -6.930060         20.542036
  36         (B2)--O          -6.930039         20.545569
  37         (B1)--O          -6.930038         20.545576
  38         (A1)--O          -6.930031         20.546865
  39         (E)--O           -6.930011         20.550087
  40         (E)--O           -6.930011         20.550087
  41         (A1)--O          -2.293853          1.155802
  42         (A1)--O          -2.276695          1.213830
  43         (A1)--O          -1.336238          1.698961
  44         (E)--O           -1.322511          1.790868
  45         (E)--O           -1.322511          1.790868
  46         (E)--O           -1.309741          1.837081
  47         (E)--O           -1.309741          1.837081
  48         (A1)--O          -1.246868          1.956723
  49         (A1)--O          -0.553396          2.898617
  50         (A1)--O          -0.546235          2.999545
  51         (B2)--O          -0.530697          3.164235
  52         (B1)--O          -0.530629          3.164349
  53         (E)--O           -0.528785          3.134563
  54         (E)--O           -0.528785          3.134563
  55         (E)--O           -0.524891          3.185147
  56         (E)--O           -0.524891          3.185147
  57         (A1)--O          -0.152731          2.038640
  58         (B2)--O          -0.149932          2.152520
  59         (B1)--O          -0.149863          2.151228
  60         (A1)--O          -0.134152          2.159003
  61         (B1)--O          -0.127261          1.865225
  62         (B2)--O          -0.127188          1.864493
  63         (E)--O           -0.126166          1.850804
  64         (E)--O           -0.126166          1.850804
  65         (E)--O           -0.103508          2.154825
  66         (E)--O           -0.103508          2.154825
  67         (A1)--O          -0.098591          1.877425
  68         (E)--O           -0.091626          2.117202
  69         (E)--O           -0.091626          2.117202
  70         (A1)--O          -0.066088          2.130572
  71         (E)--O           -0.051983          2.354901
  72         (E)--O           -0.051983          2.354901
  73         (E)--O           -0.041178          2.405928
  74         (E)--O           -0.041178          2.405928
  75         (B2)--O          -0.040270          2.404518
  76         (B1)--O          -0.040220          2.404549
  77         (E)--O           -0.040216          2.405034
  78         (E)--O           -0.040216          2.405034
  79         (A1)--O          -0.028934          1.940789
  80         (A2)--O          -0.019117          2.562732
  81         (A2)--O          -0.013068          2.634879
  82         (E)--O            0.020942          2.204918
  83         (E)--O            0.020942          2.204918
  84         (B2)--V           0.115642          2.201264
  85         (B1)--V           0.115680          2.201256
  86         (E)--V            0.186854          2.452451
  87         (E)--V            0.186854          2.452451
  88         (A1)--V           0.198253          2.080328
  89         (A1)--V           0.217028          0.237746
  90         (B1)--V           0.223118          2.698716
  91         (B2)--V           0.223315          2.698661
  92         (A1)--V           0.236661          0.301409
  93         (E)--V            0.252917          0.311388
  94         (E)--V            0.252917          0.311388
  95         (E)--V            0.254450          0.402700
  96         (E)--V            0.254450          0.402700
  97         (A1)--V           0.307508          1.509218
  98         (A1)--V           0.332416          0.780222
  99         (A1)--V           0.394914          1.383937
 100         (E)--V            0.467992          1.540841
 101         (E)--V            0.467992          1.540841
 102         (A1)--V           0.478051          1.061145
 103         (A1)--V           0.504733          1.973649
 104         (E)--V            0.545402          1.367003
 105         (E)--V            0.545402          1.367003
 106         (B2)--V           0.585035          2.198047
 107         (B1)--V           0.585066          2.197640
 108         (B2)--V           0.596459          1.574765
 109         (B1)--V           0.596470          1.575129
 110         (E)--V            0.617866          1.551883
 111         (E)--V            0.617866          1.551883
 112         (E)--V            0.639058          1.846118
 113         (E)--V            0.639058          1.846118
 114         (A1)--V           0.665023          1.978751
 115         (B1)--V           0.667943          2.837929
 116         (B2)--V           0.667967          2.838118
 117         (E)--V            0.689162          2.528250
 118         (E)--V            0.689162          2.528250
 119         (A1)--V           0.721061          2.735039
 120         (E)--V            0.739329          2.801824
 121         (E)--V            0.739329          2.801824
 122         (E)--V            0.757006          2.973051
 123         (E)--V            0.757006          2.973051
 124         (A1)--V           0.777490          3.129301
 125         (E)--V            0.790017          2.729032
 126         (E)--V            0.790017          2.729032
 127         (A2)--V           0.797203          2.688578
 128         (A1)--V           0.799924          2.773222
 129         (B1)--V           0.800744          2.601092
 130         (B2)--V           0.800930          2.604226
 131         (E)--V            0.818338          2.771987
 132         (E)--V            0.818338          2.771987
 133         (B1)--V           0.847033          2.652365
 134         (B2)--V           0.847185          2.650266
 135         (A2)--V           0.853739          2.742220
 136         (E)--V            0.887705          2.899047
 137         (E)--V            0.887705          2.899047
 138         (A1)--V           0.898698          2.944249
 139         (A1)--V           0.937100          2.805803
 140         (B1)--V           0.956497          2.923390
 141         (B2)--V           0.956501          2.923014
 142         (E)--V            0.992144          3.040857
 143         (E)--V            0.992144          3.040857
 144         (A1)--V           1.032411          2.925421
 145         (E)--V            1.074411          2.747307
 146         (E)--V            1.074411          2.747307
 147         (E)--V            1.132942          2.683467
 148         (E)--V            1.132942          2.683467
 149         (A1)--V           1.133032          2.629061
 150         (B2)--V           1.137586          2.640047
 151         (B1)--V           1.137685          2.640090
 152         (A2)--V           1.137927          2.631245
 153         (E)--V            1.140954          2.641244
 154         (E)--V            1.140954          2.641244
 155         (A2)--V           1.142365          2.626242
 156         (E)--V            1.148365          2.647146
 157         (E)--V            1.148365          2.647146
 158         (B2)--V           1.151546          2.656578
 159         (B1)--V           1.151647          2.656604
 160         (E)--V            1.151670          2.700781
 161         (E)--V            1.151670          2.700781
 162         (A1)--V           1.160460          2.699514
 163         (A2)--V           1.179944          2.753577
 164         (E)--V            1.193795          2.901453
 165         (E)--V            1.193795          2.901453
 166         (A2)--V           1.196888          2.836193
 167         (E)--V            1.200214          2.917761
 168         (E)--V            1.200214          2.917761
 169         (A1)--V           1.234845          2.835533
 170         (A1)--V           1.245890          2.676038
 171         (B1)--V           1.259771          2.959963
 172         (B2)--V           1.259777          2.960019
 173         (A1)--V           1.280563          2.813584
 174         (E)--V            1.337326          2.820309
 175         (E)--V            1.337326          2.820309
 176         (E)--V            1.389428          2.728201
 177         (E)--V            1.389428          2.728201
 178         (B1)--V           1.404723          3.058200
 179         (B2)--V           1.405124          3.058641
 180         (E)--V            1.448161          2.922399
 181         (E)--V            1.448161          2.922399
 182         (A1)--V           1.464549          2.961887
 183         (E)--V            1.482887          3.424257
 184         (E)--V            1.482887          3.424257
 185         (B1)--V           1.559098          2.985951
 186         (B2)--V           1.559225          2.986084
 187         (A1)--V          10.733030          2.924166
 188         (A1)--V          16.807807          4.163005
 Total kinetic energy from orbitals= 3.720742905787D+03
 No NMR shielding tensors so no spin-rotation constants.
 Leave Link  601 at Tue May  5 12:47:12 2015, MaxMem= 1073741824 cpu:       2.6
 (Enter /usr/g09/l9999.exe)
 1\1\GINC-LSQC07\SP\RB3LYP\GenECP\Cl8Mo2(2-)\LITAO\05-May-2015\0\\#p b3
 lyp/genecp pop=full\\Title Card Required\\-2,1\Mo,0,0.,0.,0.\Mo,0,0.,0
 .,2.24015797\Cl,0,0.84967788,2.05130385,2.782\Cl,0,2.05130385,-0.84967
 788,2.782\Cl,0,-2.05130385,0.84967788,2.782\Cl,0,-0.84967788,-2.051303
 85,2.782\Cl,0,2.05130385,0.84967788,-0.54\Cl,0,0.84967788,-2.05130385,
 -0.54\Cl,0,-0.84967788,2.05130385,-0.54\Cl,0,-2.05130385,-0.84967788,-
 0.54\\Version=EM64L-G09RevA.01\State=1-A1\HF=-3817.0264986\RMSD=4.182e
 -09\Dipole=0.,0.,-0.002609\Quadrupole=0.1376097,0.1376097,-0.2752194,0
 .,0.,0.\PG=C04V [C4(Mo1Mo1),2SGV(Cl2),2SGD(Cl2)]\\@


  THE LARGE PRINT GIVETH,
  AND THE SMALL PRINT TAKETH AWAY.

                     -- TOM WAITES
 Job cpu time:  0 days  0 hours  1 minutes 27.5 seconds.
 File lengths (MBytes):  RWF=     19 Int=      0 D2E=      0 Chk=      2 Scr=      1
 Normal termination of Gaussian 09 at Tue May  5 12:47:12 2015.
