 Entering Gaussian System, Link 0=g09
 Input=mocl8-opt.gjf
 Output=mocl8-opt.log
 Initial command:
 /usr/g09/l1.exe /scratch/litao/gaussian/Gau-2745.inp -scrdir=/scratch/litao/gaussian/
 Entering Link 1 = /usr/g09/l1.exe PID=      2746.
  
 Copyright (c) 1988,1990,1992,1993,1995,1998,2003,2009, Gaussian, Inc.
                  All Rights Reserved.
  
 This is part of the Gaussian(R) 09 program.  It is based on
 the Gaussian(R) 03 system (copyright 2003, Gaussian, Inc.),
 the Gaussian(R) 98 system (copyright 1998, Gaussian, Inc.),
 the Gaussian(R) 94 system (copyright 1995, Gaussian, Inc.),
 the Gaussian 92(TM) system (copyright 1992, Gaussian, Inc.),
 the Gaussian 90(TM) system (copyright 1990, Gaussian, Inc.),
 the Gaussian 88(TM) system (copyright 1988, Gaussian, Inc.),
 the Gaussian 86(TM) system (copyright 1986, Carnegie Mellon
 University), and the Gaussian 82(TM) system (copyright 1983,
 Carnegie Mellon University). Gaussian is a federally registered
 trademark of Gaussian, Inc.
  
 This software contains proprietary and confidential information,
 including trade secrets, belonging to Gaussian, Inc.
  
 This software is provided under written license and may be
 used, copied, transmitted, or stored only in accord with that
 written license.
  
 The following legend is applicable only to US Government
 contracts under FAR:
  
                    RESTRICTED RIGHTS LEGEND
  
 Use, reproduction and disclosure by the US Government is
 subject to restrictions as set forth in subparagraphs (a)
 and (c) of the Commercial Computer Software - Restricted
 Rights clause in FAR 52.227-19.
  
 Gaussian, Inc.
 340 Quinnipiac St., Bldg. 40, Wallingford CT 06492
  
  
 ---------------------------------------------------------------
 Warning -- This program may not be used in any manner that
 competes with the business of Gaussian, Inc. or will provide
 assistance to any competitor of Gaussian, Inc.  The licensee
 of this program is prohibited from giving any competitor of
 Gaussian, Inc. access to this program.  By using this program,
 the user acknowledges that Gaussian, Inc. is engaged in the
 business of creating and licensing software in the field of
 computational chemistry and represents and warrants to the
 licensee that it is not a competitor of Gaussian, Inc. and that
 it will not use this program in any manner prohibited above.
 ---------------------------------------------------------------
  

 Cite this work as:
 Gaussian 09, Revision A.01,
 M. J. Frisch, G. W. Trucks, H. B. Schlegel, G. E. Scuseria, 
 M. A. Robb, J. R. Cheeseman, G. Scalmani, V. Barone, B. Mennucci, 
 G. A. Petersson, H. Nakatsuji, M. Caricato, X. Li, H. P. Hratchian, 
 A. F. Izmaylov, J. Bloino, G. Zheng, J. L. Sonnenberg, M. Hada, 
 M. Ehara, K. Toyota, R. Fukuda, J. Hasegawa, M. Ishida, T. Nakajima, 
 Y. Honda, O. Kitao, H. Nakai, T. Vreven, J. A. Montgomery, Jr., 
 J. E. Peralta, F. Ogliaro, M. Bearpark, J. J. Heyd, E. Brothers, 
 K. N. Kudin, V. N. Staroverov, R. Kobayashi, J. Normand, 
 K. Raghavachari, A. Rendell, J. C. Burant, S. S. Iyengar, J. Tomasi, 
 M. Cossi, N. Rega, J. M. Millam, M. Klene, J. E. Knox, J. B. Cross, 
 V. Bakken, C. Adamo, J. Jaramillo, R. Gomperts, R. E. Stratmann, 
 O. Yazyev, A. J. Austin, R. Cammi, C. Pomelli, J. W. Ochterski, 
 R. L. Martin, K. Morokuma, V. G. Zakrzewski, G. A. Voth, 
 P. Salvador, J. J. Dannenberg, S. Dapprich, A. D. Daniels, 
 O. Farkas, J. B. Foresman, J. V. Ortiz, J. Cioslowski, 
 and D. J. Fox, Gaussian, Inc., Wallingford CT, 2009.
 
 ******************************************
 Gaussian 09:  EM64L-G09RevA.01  8-May-2009
                 5-May-2015 
 ******************************************
 %nprocshared=8
 Will use up to    8 processors via shared memory.
 %mem=8GB
 %chk=mocl8-opt.chk
 --------------------------
 #opt b3lyp/genecp pop=full
 --------------------------
 1/14=-1,18=20,19=15,26=3,38=1/1,3;
 2/9=110,12=2,17=6,18=5,40=1/2;
 3/5=7,11=2,16=1,17=8,25=1,30=1,71=1,74=-5/1,2,3;
 4//1;
 5/5=2,38=5/2;
 6/7=3,28=1/1;
 7//1,2,3,16;
 1/14=-1,18=20,19=15/3(2);
 2/9=110/2;
 99//99;
 2/9=110/2;
 3/5=7,6=1,11=2,16=1,17=8,25=1,30=1,71=1,74=-5,82=7/1,2,3;
 4/5=5,16=3/1;
 5/5=2,38=5/2;
 7//1,2,3,16;
 1/14=-1,18=20,19=15/3(-5);
 2/9=110/2;
 6/7=3,19=2,28=1/1;
 99/9=1/99;
 -------------------
 Title Card Required
 -------------------
 Symbolic Z-matrix:
 Charge = -2 Multiplicity = 1
 Mo                    0.        0.        0. 
 Mo                    0.        0.        2.24016 
 Cl                    1.57      1.57      2.782 
 Cl                    1.57     -1.57      2.782 
 Cl                   -1.57      1.57      2.782 
 Cl                   -1.57     -1.57      2.782 
 Cl                    1.57      1.57     -0.54 
 Cl                    1.57     -1.57     -0.54 
 Cl                   -1.57      1.57     -0.54 
 Cl                   -1.57     -1.57     -0.54 
 

 GradGradGradGradGradGradGradGradGradGradGradGradGradGradGradGradGradGrad
 Berny optimization.
 Initialization pass.
                           ----------------------------
                           !    Initial Parameters    !
                           ! (Angstroms and Degrees)  !
 --------------------------                            --------------------------
 ! Name  Definition              Value          Derivative Info.                !
 --------------------------------------------------------------------------------
 ! R1    R(1,2)                  2.2402         estimate D2E/DX2                !
 ! R2    R(1,7)                  2.285          estimate D2E/DX2                !
 ! R3    R(1,8)                  2.285          estimate D2E/DX2                !
 ! R4    R(1,9)                  2.285          estimate D2E/DX2                !
 ! R5    R(1,10)                 2.285          estimate D2E/DX2                !
 ! R6    R(2,3)                  2.2855         estimate D2E/DX2                !
 ! R7    R(2,4)                  2.2855         estimate D2E/DX2                !
 ! R8    R(2,5)                  2.2855         estimate D2E/DX2                !
 ! R9    R(2,6)                  2.2855         estimate D2E/DX2                !
 ! A1    A(2,1,7)              103.6694         estimate D2E/DX2                !
 ! A2    A(2,1,8)              103.6694         estimate D2E/DX2                !
 ! A3    A(2,1,9)              103.6694         estimate D2E/DX2                !
 ! A4    A(2,1,10)             103.6694         estimate D2E/DX2                !
 ! A5    A(7,1,8)               86.7985         estimate D2E/DX2                !
 ! A6    A(7,1,9)               86.7985         estimate D2E/DX2                !
 ! A7    A(7,1,10)             152.6611         estimate D2E/DX2                !
 ! A8    A(8,1,9)              152.6611         estimate D2E/DX2                !
 ! A9    A(8,1,10)              86.7985         estimate D2E/DX2                !
 ! A10   A(9,1,10)              86.7985         estimate D2E/DX2                !
 ! A11   A(1,2,3)              103.7143         estimate D2E/DX2                !
 ! A12   A(1,2,4)              103.7143         estimate D2E/DX2                !
 ! A13   A(1,2,5)              103.7143         estimate D2E/DX2                !
 ! A14   A(1,2,6)              103.7143         estimate D2E/DX2                !
 ! A15   A(3,2,4)               86.7779         estimate D2E/DX2                !
 ! A16   A(3,2,5)               86.7779         estimate D2E/DX2                !
 ! A17   A(3,2,6)              152.5714         estimate D2E/DX2                !
 ! A18   A(4,2,5)              152.5714         estimate D2E/DX2                !
 ! A19   A(4,2,6)               86.7779         estimate D2E/DX2                !
 ! A20   A(5,2,6)               86.7779         estimate D2E/DX2                !
 ! D1    D(7,1,2,3)              0.0            estimate D2E/DX2                !
 ! D2    D(7,1,2,4)            -90.0            estimate D2E/DX2                !
 ! D3    D(7,1,2,5)             90.0            estimate D2E/DX2                !
 ! D4    D(7,1,2,6)            180.0            estimate D2E/DX2                !
 ! D5    D(8,1,2,3)             90.0            estimate D2E/DX2                !
 ! D6    D(8,1,2,4)              0.0            estimate D2E/DX2                !
 ! D7    D(8,1,2,5)           -180.0            estimate D2E/DX2                !
 ! D8    D(8,1,2,6)            -90.0            estimate D2E/DX2                !
 ! D9    D(9,1,2,3)            -90.0            estimate D2E/DX2                !
 ! D10   D(9,1,2,4)            180.0            estimate D2E/DX2                !
 ! D11   D(9,1,2,5)              0.0            estimate D2E/DX2                !
 ! D12   D(9,1,2,6)             90.0            estimate D2E/DX2                !
 ! D13   D(10,1,2,3)           180.0            estimate D2E/DX2                !
 ! D14   D(10,1,2,4)            90.0            estimate D2E/DX2                !
 ! D15   D(10,1,2,5)           -90.0            estimate D2E/DX2                !
 ! D16   D(10,1,2,6)             0.0            estimate D2E/DX2                !
 --------------------------------------------------------------------------------
 Trust Radius=3.00D-01 FncErr=1.00D-07 GrdErr=1.00D-06
 Number of steps in this run=  55 maximum allowed number of steps= 100.
 GradGradGradGradGradGradGradGradGradGradGradGradGradGradGradGradGradGrad

                          Input orientation:                          
 ---------------------------------------------------------------------
 Center     Atomic      Atomic             Coordinates (Angstroms)
 Number     Number       Type             X           Y           Z
 ---------------------------------------------------------------------
      1         42           0        0.000000    0.000000    0.000000
      2         42           0        0.000000    0.000000    2.240158
      3         17           0        1.570000    1.570000    2.782000
      4         17           0        1.570000   -1.570000    2.782000
      5         17           0       -1.570000    1.570000    2.782000
      6         17           0       -1.570000   -1.570000    2.782000
      7         17           0        1.570000    1.570000   -0.540000
      8         17           0        1.570000   -1.570000   -0.540000
      9         17           0       -1.570000    1.570000   -0.540000
     10         17           0       -1.570000   -1.570000   -0.540000
 ---------------------------------------------------------------------
                    Distance matrix (angstroms):
                    1          2          3          4          5
     1  Mo   0.000000
     2  Mo   2.240158   0.000000
     3  Cl   3.559399   2.285474   0.000000
     4  Cl   3.559399   2.285474   3.140000   0.000000
     5  Cl   3.559399   2.285474   3.140000   4.440631   0.000000
     6  Cl   3.559399   2.285474   4.440631   3.140000   3.140000
     7  Cl   2.285038   3.557960   3.322000   4.571136   4.571136
     8  Cl   2.285038   3.557960   4.571136   3.322000   5.545709
     9  Cl   2.285038   3.557960   4.571136   5.545709   3.322000
    10  Cl   2.285038   3.557960   5.545709   4.571136   4.571136
                    6          7          8          9         10
     6  Cl   0.000000
     7  Cl   5.545709   0.000000
     8  Cl   4.571136   3.140000   0.000000
     9  Cl   4.571136   3.140000   4.440631   0.000000
    10  Cl   3.322000   4.440631   3.140000   3.140000   0.000000
 Stoichiometry    Cl8Mo2(2-)
 Framework group  C4V[C4(MoMo),2SGV(Cl4)]
 Deg. of freedom     5
 Full point group                 C4V     NOp   8
 Largest Abelian subgroup         C2V     NOp   4
 Largest concise Abelian subgroup C2V     NOp   4
                         Standard orientation:                         
 ---------------------------------------------------------------------
 Center     Atomic      Atomic             Coordinates (Angstroms)
 Number     Number       Type             X           Y           Z
 ---------------------------------------------------------------------
      1         42           0        0.000000    0.000000    1.120648
      2         42           0        0.000000    0.000000   -1.119510
      3         17           0        0.000000    2.220315   -1.661352
      4         17           0       -2.220315    0.000000   -1.661352
      5         17           0        2.220315    0.000000   -1.661352
      6         17           0        0.000000   -2.220315   -1.661352
      7         17           0        0.000000    2.220315    1.660648
      8         17           0       -2.220315    0.000000    1.660648
      9         17           0        2.220315    0.000000    1.660648
     10         17           0        0.000000   -2.220315    1.660648
 ---------------------------------------------------------------------
 Rotational constants (GHZ):      0.3664515      0.2960578      0.2960578
 General basis read from cards:  (5D, 7F)
 ======================================================================================================
                                       Pseudopotential Parameters
 ======================================================================================================
  Center     Atomic      Valence      Angular      Power
  Number     Number     Electrons     Momentum     of R      Exponent        Coefficient   SO-Coeffient
 ======================================================================================================
    1         42           14
                                      F and up 
                                                     0      537.9667807       -0.04694920    0.00000000
                                                     1      147.8982938      -20.20800840    0.00000000
                                                     2       45.7358898     -106.21163020    0.00000000
                                                     2       13.2911467      -41.81073680    0.00000000
                                                     2        4.7059961       -4.20541030    0.00000000
                                      S - F
                                                     0      110.2991760        2.80637170    0.00000000
                                                     1       23.2014645       44.51620120    0.00000000
                                                     2        5.3530131       82.77852270    0.00000000
                                      P - F
                                                     0       63.2901397        4.94208760    0.00000000
                                                     1       23.3315302       25.86049760    0.00000000
                                                     2       24.6759423      132.47087420    0.00000000
                                                     2        4.6493040       57.31497940    0.00000000
                                      D - F
                                                     0      104.4839977        3.00545910    0.00000000
                                                     1       66.2307245       26.36378510    0.00000000
                                                     2       39.1283176      183.38491990    0.00000000
                                                     2       13.1164437       98.44530680    0.00000000
                                                     2        3.6280263       22.49013770    0.00000000
    2         42           14
                                      F and up 
                                                     0      537.9667807       -0.04694920    0.00000000
                                                     1      147.8982938      -20.20800840    0.00000000
                                                     2       45.7358898     -106.21163020    0.00000000
                                                     2       13.2911467      -41.81073680    0.00000000
                                                     2        4.7059961       -4.20541030    0.00000000
                                      S - F
                                                     0      110.2991760        2.80637170    0.00000000
                                                     1       23.2014645       44.51620120    0.00000000
                                                     2        5.3530131       82.77852270    0.00000000
                                      P - F
                                                     0       63.2901397        4.94208760    0.00000000
                                                     1       23.3315302       25.86049760    0.00000000
                                                     2       24.6759423      132.47087420    0.00000000
                                                     2        4.6493040       57.31497940    0.00000000
                                      D - F
                                                     0      104.4839977        3.00545910    0.00000000
                                                     1       66.2307245       26.36378510    0.00000000
                                                     2       39.1283176      183.38491990    0.00000000
                                                     2       13.1164437       98.44530680    0.00000000
                                                     2        3.6280263       22.49013770    0.00000000
    3         17
                                   No pseudopotential on this center.
    4         17
                                   No pseudopotential on this center.
    5         17
                                   No pseudopotential on this center.
    6         17
                                   No pseudopotential on this center.
    7         17
                                   No pseudopotential on this center.
    8         17
                                   No pseudopotential on this center.
    9         17
                                   No pseudopotential on this center.
   10         17
                                   No pseudopotential on this center.
 ======================================================================================================
 There are    72 symmetry adapted basis functions of A1  symmetry.
 There are    24 symmetry adapted basis functions of A2  symmetry.
 There are    46 symmetry adapted basis functions of B1  symmetry.
 There are    46 symmetry adapted basis functions of B2  symmetry.
 Integral buffers will be    131072 words long.
 Raffenetti 2 integral format.
 Two-electron integral symmetry is turned on.
   188 basis functions,   514 primitive gaussians,   200 cartesian basis functions
    83 alpha electrons       83 beta electrons
       nuclear repulsion energy      1859.8117169890 Hartrees.
 NAtoms=   10 NActive=   10 NUniq=    4 SFac= 3.00D+00 NAtFMM=   80 NAOKFM=F Big=F
 One-electron integrals computed using PRISM.
   8 Symmetry operations used in ECPInt.
 ECPInt:  NShTT=    1596 NPrTT=   14825 LenC2=    1481 LenP2D=    9021.
 LDataN:  DoStor=T MaxTD1= 5 Len=  102
 NBasis=   188 RedAO= T  NBF=    72    24    46    46
 NBsUse=   188 1.00D-06 NBFU=    72    24    46    46
 Defaulting to unpruned grid for atomic number  42.
 Harris functional with IExCor=  402 diagonalized for initial guess.
 ExpMin= 2.47D-02 ExpMax= 2.52D+04 ExpMxC= 3.78D+03 IAcc=3 IRadAn=         0 AccDes= 0.00D+00
 HarFok:  IExCor=  402 AccDes= 0.00D+00 IRadAn=         0 IDoV= 1
 ScaDFX=  1.000000  1.000000  1.000000  1.000000
 Defaulting to unpruned grid for atomic number  42.
 Defaulting to unpruned grid for atomic number  42.
 Defaulting to unpruned grid for atomic number  42.
 Defaulting to unpruned grid for atomic number  42.
 Defaulting to unpruned grid for atomic number  42.
 Defaulting to unpruned grid for atomic number  42.
 Defaulting to unpruned grid for atomic number  42.
 Defaulting to unpruned grid for atomic number  42.
 FoFCou: FMM=F IPFlag=           0 FMFlag=      100000 FMFlg1=           0
         NFxFlg=           0 DoJE=T BraDBF=F KetDBF=T FulRan=T
         Omega=  0.000000  0.000000  1.000000  0.000000  0.000000 ICntrl=     500 IOpCl=  0
         NMat0=    1 NMatS0=    1 NMatT0=    0 NMatD0=    1 NMtDS0=    0 NMtDT0=    0
         I1Cent=           4 NGrid=           0.
 Petite list used in FoFCou.
 Initial guess orbital symmetries:
       Occupied  (E) (E) (B2) (A1) (E) (E) (A1) (B2) (E) (E) (B2)
                 (E) (E) (A1) (A1) (B2) (B2) (E) (E) (A1) (E) (E)
                 (A1) (B2) (B2) (A1) (E) (E) (A2) (E) (E) (A1)
                 (B2) (A2) (E) (E) (B1) (E) (E) (B1) (A1) (A1)
                 (A1) (E) (E) (E) (E) (A1) (A1) (A1) (B2) (B2)
                 (E) (E) (E) (E) (A1) (B1) (B1) (B2) (A1) (E) (E)
                 (A1) (B2) (E) (E) (E) (E) (B2) (A1) (E) (E) (E)
                 (E) (E) (E) (B2) (A2) (A2) (E) (E) (A1)
       Virtual   (B1) (B1) (A1) (A1) (E) (E) (A1) (B2) (A1) (E)
                 (E) (E) (E) (B2) (A1) (E) (E) (A1) (A1) (E) (E)
                 (A1) (B2) (B1) (B2) (B1) (E) (E) (B2) (B1) (E)
                 (E) (A1) (E) (E) (E) (E) (E) (E) (A1) (B2) (B1)
                 (E) (E) (A2) (A1) (E) (E) (A1) (B2) (A2) (E) (E)
                 (A1) (B2) (B2) (A1) (E) (E) (A1) (E) (E) (B2)
                 (A2) (B1) (A2) (E) (E) (B1) (B2) (E) (E) (E) (E)
                 (A1) (E) (E) (A1) (B2) (A2) (E) (E) (A2) (E) (E)
                 (A1) (A1) (A1) (B2) (E) (E) (B1) (E) (E) (B2)
                 (B2) (E) (E) (A1) (B1) (E) (E) (B2) (A1) (A1)
 The electronic state of the initial guess is 1-A1.
 Requested convergence on RMS density matrix=1.00D-08 within 128 cycles.
 Requested convergence on MAX density matrix=1.00D-06.
 Requested convergence on             energy=1.00D-06.
 No special actions if energy rises.
 Keep R1 ints in memory in canonical form, NReq=206321650.
 Defaulting to unpruned grid for atomic number  42.
 Defaulting to unpruned grid for atomic number  42.
 Defaulting to unpruned grid for atomic number  42.
 Defaulting to unpruned grid for atomic number  42.
 Defaulting to unpruned grid for atomic number  42.
 Defaulting to unpruned grid for atomic number  42.
 Defaulting to unpruned grid for atomic number  42.
 Defaulting to unpruned grid for atomic number  42.
 EnCoef did   100 forward-backward iterations
 EnCoef did     3 forward-backward iterations
 EnCoef did     2 forward-backward iterations
 SCF Done:  E(RB3LYP) =  -3817.02479459     A.U. after   14 cycles
             Convg  =    0.5803D-08             -V/T =  2.0259

 **********************************************************************

            Population analysis using the SCF density.

 **********************************************************************

 Orbital symmetries:
       Occupied  (E) (E) (B2) (E) (E) (A1) (A1) (B2) (E) (E) (B2)
                 (E) (E) (A1) (A1) (B2) (B2) (A1) (E) (E) (A1)
                 (E) (E) (B2) (A2) (E) (E) (A2) (B1) (E) (E) (B1)
                 (B2) (A1) (E) (E) (A1) (B2) (E) (E) (A1) (A1)
                 (A1) (E) (E) (E) (E) (A1) (A1) (A1) (B2) (E) (E)
                 (B2) (E) (E) (B2) (A1) (B2) (B1) (A1) (E) (E)
                 (B1) (A1) (E) (E) (E) (E) (B2) (A1) (E) (E) (E)
                 (E) (E) (E) (A1) (B2) (A2) (A2) (E) (E)
       Virtual   (B1) (B1) (E) (E) (A1) (B2) (A1) (B2) (A1) (E)
                 (E) (E) (E) (A1) (A1) (A1) (E) (E) (A1) (A1) (E)
                 (E) (B1) (B2) (B2) (B1) (E) (E) (B1) (A1) (E)
                 (E) (B2) (E) (E) (B1) (A1) (E) (E) (E) (E) (B2)
                 (E) (E) (A1) (A1) (A2) (E) (E) (B2) (A2) (E) (E)
                 (A1) (B2) (A1) (B2) (A1) (E) (E) (E) (E) (B2)
                 (E) (E) (A2) (B1) (B2) (A2) (A1) (B1) (E) (E)
                 (E) (E) (E) (E) (A1) (B2) (A2) (E) (E) (A2) (E)
                 (E) (A1) (A1) (A1) (B2) (E) (E) (B1) (B2) (E)
                 (E) (B2) (E) (E) (A1) (B1) (E) (E) (B2) (A1) (A1)
 The electronic state is 1-A1.
 Alpha  occ. eigenvalues -- -101.24093-101.24093-101.24091-101.24090-101.24090
 Alpha  occ. eigenvalues -- -101.24090-101.24089-101.24088  -9.17483  -9.17483
 Alpha  occ. eigenvalues --   -9.17478  -9.17475  -9.17475  -9.17474  -9.17472
 Alpha  occ. eigenvalues --   -9.17469  -6.93393  -6.93387  -6.93387  -6.93387
 Alpha  occ. eigenvalues --   -6.93386  -6.93386  -6.93386  -6.93383  -6.93018
 Alpha  occ. eigenvalues --   -6.93017  -6.93017  -6.93016  -6.93016  -6.93016
 Alpha  occ. eigenvalues --   -6.93016  -6.93013  -6.92959  -6.92959  -6.92958
 Alpha  occ. eigenvalues --   -6.92958  -6.92956  -6.92956  -6.92955  -6.92955
 Alpha  occ. eigenvalues --   -2.29223  -2.27505  -1.33450  -1.32097  -1.32097
 Alpha  occ. eigenvalues --   -1.30820  -1.30820  -1.24506  -0.55377  -0.54474
 Alpha  occ. eigenvalues --   -0.53415  -0.52982  -0.52982  -0.52605  -0.52280
 Alpha  occ. eigenvalues --   -0.52280  -0.15488  -0.15245  -0.13882  -0.13667
 Alpha  occ. eigenvalues --   -0.13267  -0.12959  -0.12959  -0.11949  -0.10246
 Alpha  occ. eigenvalues --   -0.09871  -0.09871  -0.09222  -0.09222  -0.05928
 Alpha  occ. eigenvalues --   -0.05921  -0.04824  -0.04824  -0.04132  -0.04132
 Alpha  occ. eigenvalues --   -0.03761  -0.03761  -0.02845  -0.01961  -0.01901
 Alpha  occ. eigenvalues --   -0.01282   0.01767   0.01767
 Alpha virt. eigenvalues --    0.10405   0.13061   0.19051   0.19051   0.20198
 Alpha virt. eigenvalues --    0.21425   0.21718   0.23274   0.23713   0.25338
 Alpha virt. eigenvalues --    0.25338   0.25423   0.25423   0.30300   0.33440
 Alpha virt. eigenvalues --    0.39621   0.46202   0.46202   0.48988   0.50307
 Alpha virt. eigenvalues --    0.55688   0.55688   0.58285   0.58822   0.58867
 Alpha virt. eigenvalues --    0.60894   0.62381   0.62381   0.66330   0.67021
 Alpha virt. eigenvalues --    0.67260   0.67260   0.69761   0.70118   0.70118
 Alpha virt. eigenvalues --    0.73278   0.73993   0.74020   0.74020   0.76494
 Alpha virt. eigenvalues --    0.76494   0.76827   0.78586   0.78586   0.79166
 Alpha virt. eigenvalues --    0.79266   0.79706   0.81059   0.81059   0.84460
 Alpha virt. eigenvalues --    0.85367   0.86899   0.86899   0.86925   0.90974
 Alpha virt. eigenvalues --    0.92223   0.92796   0.96600   0.96893   0.96893
 Alpha virt. eigenvalues --    1.09575   1.09575   1.13309   1.13751   1.13751
 Alpha virt. eigenvalues --    1.13820   1.14153   1.14249   1.14288   1.14490
 Alpha virt. eigenvalues --    1.14552   1.14654   1.14654   1.14887   1.14887
 Alpha virt. eigenvalues --    1.17647   1.17647   1.17653   1.17774   1.18081
 Alpha virt. eigenvalues --    1.19378   1.19378   1.19654   1.20892   1.20892
 Alpha virt. eigenvalues --    1.23361   1.25150   1.25244   1.26848   1.29170
 Alpha virt. eigenvalues --    1.29170   1.31308   1.36795   1.38518   1.38518
 Alpha virt. eigenvalues --    1.41531   1.41683   1.41683   1.46971   1.52092
 Alpha virt. eigenvalues --    1.58627   1.58627   1.76052  10.66186  17.08608
     Molecular Orbital Coefficients:
                           1         2         3         4         5
                        (E)--O    (E)--O    (B2)--O   (E)--O    (E)--O
     Eigenvalues --  -101.24093-101.24093-101.24091-101.24090-101.24090
   1 1   Mo 1S          0.00000   0.00000   0.00000   0.00000   0.00000
   2        2S          0.00000   0.00000   0.00000   0.00000   0.00000
   3        3S          0.00000   0.00000   0.00000   0.00000   0.00000
   4        4PX         0.00058   0.00000   0.00000   0.00025   0.00000
   5        4PY         0.00000  -0.00058   0.00000   0.00000  -0.00025
   6        4PZ         0.00000   0.00000   0.00000   0.00000   0.00000
   7        5PX         0.00659   0.00000   0.00000   0.00254   0.00000
   8        5PY         0.00000  -0.00659   0.00000   0.00000  -0.00254
   9        5PZ         0.00000   0.00000   0.00000   0.00000   0.00000
  10        6PX        -0.00022   0.00000   0.00000   0.00008   0.00000
  11        6PY         0.00000   0.00022   0.00000   0.00000  -0.00008
  12        6PZ         0.00000   0.00000   0.00000   0.00000   0.00000
  13        7D 0        0.00000   0.00000   0.00000   0.00000   0.00000
  14        7D+1        0.00004   0.00000   0.00000   0.00000   0.00000
  15        7D-1        0.00000  -0.00004   0.00000   0.00000   0.00000
  16        7D+2        0.00000   0.00000   0.00012   0.00000   0.00000
  17        7D-2        0.00000   0.00000   0.00000   0.00000   0.00000
  18        8D 0        0.00000   0.00000   0.00000   0.00000   0.00000
  19        8D+1       -0.00030   0.00000   0.00000   0.00063   0.00000
  20        8D-1        0.00000   0.00030   0.00000   0.00000  -0.00063
  21        8D+2        0.00000   0.00000   0.00072   0.00000   0.00000
  22        8D-2        0.00000   0.00000   0.00000   0.00000   0.00000
  23 2   Mo 1S          0.00000   0.00000   0.00000   0.00000   0.00000
  24        2S          0.00000   0.00000   0.00000   0.00000   0.00000
  25        3S          0.00000   0.00000   0.00000   0.00000   0.00000
  26        4PX        -0.00057   0.00000   0.00000   0.00027   0.00000
  27        4PY         0.00000   0.00057   0.00000   0.00000  -0.00027
  28        4PZ         0.00000   0.00000   0.00000   0.00000   0.00000
  29        5PX        -0.00647   0.00000   0.00000   0.00281   0.00000
  30        5PY         0.00000   0.00647   0.00000   0.00000  -0.00281
  31        5PZ         0.00000   0.00000   0.00000   0.00000   0.00000
  32        6PX         0.00022   0.00000   0.00000   0.00007   0.00000
  33        6PY         0.00000  -0.00022   0.00000   0.00000  -0.00007
  34        6PZ         0.00000   0.00000   0.00000   0.00000   0.00000
  35        7D 0        0.00000   0.00000   0.00000   0.00000   0.00000
  36        7D+1        0.00004   0.00000   0.00000   0.00000   0.00000
  37        7D-1        0.00000  -0.00004   0.00000   0.00000   0.00000
  38        7D+2        0.00000   0.00000  -0.00012   0.00000   0.00000
  39        7D-2        0.00000   0.00000   0.00000   0.00000   0.00000
  40        8D 0        0.00000   0.00000   0.00000   0.00000   0.00000
  41        8D+1       -0.00032   0.00000   0.00000  -0.00062   0.00000
  42        8D-1        0.00000   0.00032   0.00000   0.00000   0.00062
  43        8D+2        0.00000   0.00000  -0.00066   0.00000   0.00000
  44        8D-2        0.00000   0.00000   0.00000   0.00000   0.00000
  45 3   Cl 1S          0.00000  -0.48771  -0.34422   0.00000   0.50853
  46        2S          0.00000  -0.00617  -0.00439   0.00000   0.00646
  47        2PX        -0.00001   0.00000   0.00000   0.00000   0.00000
  48        2PY         0.00000   0.00003   0.00003   0.00000  -0.00003
  49        2PZ         0.00000  -0.00001  -0.00002   0.00000   0.00000
  50        3S          0.00000   0.00311   0.00192   0.00000  -0.00285
  51        3PX         0.00004   0.00000   0.00000   0.00001   0.00000
  52        3PY         0.00000  -0.00017  -0.00014   0.00000   0.00014
  53        3PZ         0.00000   0.00007   0.00010   0.00000  -0.00002
  54        4S          0.00000  -0.00472  -0.00176   0.00000   0.00348
  55        4PX         0.00041   0.00000   0.00000  -0.00030   0.00000
  56        4PY         0.00000   0.00146   0.00057   0.00000  -0.00104
  57        4PZ         0.00000  -0.00043  -0.00030   0.00000   0.00019
  58        5D 0        0.00000   0.00004   0.00002   0.00000  -0.00004
  59        5D+1        0.00002   0.00000   0.00000  -0.00002   0.00000
  60        5D-1        0.00000   0.00004   0.00002   0.00000  -0.00001
  61        5D+2        0.00000   0.00005   0.00003   0.00000  -0.00005
  62        5D-2       -0.00007   0.00000   0.00000   0.00004   0.00000
  63 4   Cl 1S         -0.48771   0.00000   0.34422   0.50853   0.00000
  64        2S         -0.00617   0.00000   0.00439   0.00646   0.00000
  65        2PX        -0.00003   0.00000   0.00003   0.00003   0.00000
  66        2PY         0.00000   0.00001   0.00000   0.00000   0.00000
  67        2PZ        -0.00001   0.00000   0.00002   0.00000   0.00000
  68        3S          0.00311   0.00000  -0.00192  -0.00285   0.00000
  69        3PX         0.00017   0.00000  -0.00014  -0.00014   0.00000
  70        3PY         0.00000  -0.00004   0.00000   0.00000  -0.00001
  71        3PZ         0.00007   0.00000  -0.00010  -0.00002   0.00000
  72        4S         -0.00472   0.00000   0.00176   0.00348   0.00000
  73        4PX        -0.00146   0.00000   0.00057   0.00104   0.00000
  74        4PY         0.00000  -0.00041   0.00000   0.00000   0.00030
  75        4PZ        -0.00043   0.00000   0.00030   0.00019   0.00000
  76        5D 0        0.00004   0.00000  -0.00002  -0.00004   0.00000
  77        5D+1       -0.00004   0.00000   0.00002   0.00001   0.00000
  78        5D-1        0.00000  -0.00002   0.00000   0.00000   0.00002
  79        5D+2       -0.00005   0.00000   0.00003   0.00005   0.00000
  80        5D-2        0.00000  -0.00007   0.00000   0.00000   0.00004
  81 5   Cl 1S          0.48771   0.00000   0.34422  -0.50853   0.00000
  82        2S          0.00617   0.00000   0.00439  -0.00646   0.00000
  83        2PX        -0.00003   0.00000  -0.00003   0.00003   0.00000
  84        2PY         0.00000   0.00001   0.00000   0.00000   0.00000
  85        2PZ         0.00001   0.00000   0.00002   0.00000   0.00000
  86        3S         -0.00311   0.00000  -0.00192   0.00285   0.00000
  87        3PX         0.00017   0.00000   0.00014  -0.00014   0.00000
  88        3PY         0.00000  -0.00004   0.00000   0.00000  -0.00001
  89        3PZ        -0.00007   0.00000  -0.00010   0.00002   0.00000
  90        4S          0.00472   0.00000   0.00176  -0.00348   0.00000
  91        4PX        -0.00146   0.00000  -0.00057   0.00104   0.00000
  92        4PY         0.00000  -0.00041   0.00000   0.00000   0.00030
  93        4PZ         0.00043   0.00000   0.00030  -0.00019   0.00000
  94        5D 0       -0.00004   0.00000  -0.00002   0.00004   0.00000
  95        5D+1       -0.00004   0.00000  -0.00002   0.00001   0.00000
  96        5D-1        0.00000  -0.00002   0.00000   0.00000   0.00002
  97        5D+2        0.00005   0.00000   0.00003  -0.00005   0.00000
  98        5D-2        0.00000   0.00007   0.00000   0.00000  -0.00004
  99 6   Cl 1S          0.00000   0.48771  -0.34422   0.00000  -0.50853
 100        2S          0.00000   0.00617  -0.00439   0.00000  -0.00646
 101        2PX        -0.00001   0.00000   0.00000   0.00000   0.00000
 102        2PY         0.00000   0.00003  -0.00003   0.00000  -0.00003
 103        2PZ         0.00000   0.00001  -0.00002   0.00000   0.00000
 104        3S          0.00000  -0.00311   0.00192   0.00000   0.00285
 105        3PX         0.00004   0.00000   0.00000   0.00001   0.00000
 106        3PY         0.00000  -0.00017   0.00014   0.00000   0.00014
 107        3PZ         0.00000  -0.00007   0.00010   0.00000   0.00002
 108        4S          0.00000   0.00472  -0.00176   0.00000  -0.00348
 109        4PX         0.00041   0.00000   0.00000  -0.00030   0.00000
 110        4PY         0.00000   0.00146  -0.00057   0.00000  -0.00104
 111        4PZ         0.00000   0.00043  -0.00030   0.00000  -0.00019
 112        5D 0        0.00000  -0.00004   0.00002   0.00000   0.00004
 113        5D+1        0.00002   0.00000   0.00000  -0.00002   0.00000
 114        5D-1        0.00000   0.00004  -0.00002   0.00000  -0.00001
 115        5D+2        0.00000  -0.00005   0.00003   0.00000   0.00005
 116        5D-2        0.00007   0.00000   0.00000  -0.00004   0.00000
 117 7   Cl 1S          0.00000   0.50852   0.36020   0.00000   0.48772
 118        2S          0.00000   0.00644   0.00459   0.00000   0.00620
 119        2PX         0.00001   0.00000   0.00000   0.00000   0.00000
 120        2PY         0.00000  -0.00004  -0.00003   0.00000  -0.00003
 121        2PZ         0.00000  -0.00001  -0.00002   0.00000   0.00000
 122        3S          0.00000  -0.00322  -0.00200   0.00000  -0.00272
 123        3PX        -0.00004   0.00000   0.00000   0.00001   0.00000
 124        3PY         0.00000   0.00017   0.00015   0.00000   0.00013
 125        3PZ         0.00000   0.00007   0.00010   0.00000   0.00002
 126        4S          0.00000   0.00487   0.00184   0.00000   0.00328
 127        4PX        -0.00042   0.00000   0.00000  -0.00028   0.00000
 128        4PY         0.00000  -0.00150  -0.00060   0.00000  -0.00098
 129        4PZ         0.00000  -0.00043  -0.00031   0.00000  -0.00018
 130        5D 0        0.00000  -0.00004  -0.00002   0.00000  -0.00004
 131        5D+1        0.00002   0.00000   0.00000   0.00002   0.00000
 132        5D-1        0.00000   0.00004   0.00002   0.00000   0.00000
 133        5D+2        0.00000  -0.00006  -0.00003   0.00000  -0.00005
 134        5D-2        0.00007   0.00000   0.00000   0.00003   0.00000
 135 8   Cl 1S          0.50852   0.00000  -0.36020   0.48772   0.00000
 136        2S          0.00644   0.00000  -0.00459   0.00620   0.00000
 137        2PX         0.00004   0.00000  -0.00003   0.00003   0.00000
 138        2PY         0.00000  -0.00001   0.00000   0.00000   0.00000
 139        2PZ        -0.00001   0.00000   0.00002   0.00000   0.00000
 140        3S         -0.00322   0.00000   0.00200  -0.00272   0.00000
 141        3PX        -0.00017   0.00000   0.00015  -0.00013   0.00000
 142        3PY         0.00000   0.00004   0.00000   0.00000  -0.00001
 143        3PZ         0.00007   0.00000  -0.00010   0.00002   0.00000
 144        4S          0.00487   0.00000  -0.00184   0.00328   0.00000
 145        4PX         0.00150   0.00000  -0.00060   0.00098   0.00000
 146        4PY         0.00000   0.00042   0.00000   0.00000   0.00028
 147        4PZ        -0.00043   0.00000   0.00031  -0.00018   0.00000
 148        5D 0       -0.00004   0.00000   0.00002  -0.00004   0.00000
 149        5D+1       -0.00004   0.00000   0.00002   0.00000   0.00000
 150        5D-1        0.00000  -0.00002   0.00000   0.00000  -0.00002
 151        5D+2        0.00006   0.00000  -0.00003   0.00005   0.00000
 152        5D-2        0.00000   0.00007   0.00000   0.00000   0.00003
 153 9   Cl 1S         -0.50852   0.00000  -0.36020  -0.48772   0.00000
 154        2S         -0.00644   0.00000  -0.00459  -0.00620   0.00000
 155        2PX         0.00004   0.00000   0.00003   0.00003   0.00000
 156        2PY         0.00000  -0.00001   0.00000   0.00000   0.00000
 157        2PZ         0.00001   0.00000   0.00002   0.00000   0.00000
 158        3S          0.00322   0.00000   0.00200   0.00272   0.00000
 159        3PX        -0.00017   0.00000  -0.00015  -0.00013   0.00000
 160        3PY         0.00000   0.00004   0.00000   0.00000  -0.00001
 161        3PZ        -0.00007   0.00000  -0.00010  -0.00002   0.00000
 162        4S         -0.00487   0.00000  -0.00184  -0.00328   0.00000
 163        4PX         0.00150   0.00000   0.00060   0.00098   0.00000
 164        4PY         0.00000   0.00042   0.00000   0.00000   0.00028
 165        4PZ         0.00043   0.00000   0.00031   0.00018   0.00000
 166        5D 0        0.00004   0.00000   0.00002   0.00004   0.00000
 167        5D+1       -0.00004   0.00000  -0.00002   0.00000   0.00000
 168        5D-1        0.00000  -0.00002   0.00000   0.00000  -0.00002
 169        5D+2       -0.00006   0.00000  -0.00003  -0.00005   0.00000
 170        5D-2        0.00000  -0.00007   0.00000   0.00000  -0.00003
 171 10  Cl 1S          0.00000  -0.50852   0.36020   0.00000  -0.48772
 172        2S          0.00000  -0.00644   0.00459   0.00000  -0.00620
 173        2PX         0.00001   0.00000   0.00000   0.00000   0.00000
 174        2PY         0.00000  -0.00004   0.00003   0.00000  -0.00003
 175        2PZ         0.00000   0.00001  -0.00002   0.00000   0.00000
 176        3S          0.00000   0.00322  -0.00200   0.00000   0.00272
 177        3PX        -0.00004   0.00000   0.00000   0.00001   0.00000
 178        3PY         0.00000   0.00017  -0.00015   0.00000   0.00013
 179        3PZ         0.00000  -0.00007   0.00010   0.00000  -0.00002
 180        4S          0.00000  -0.00487   0.00184   0.00000  -0.00328
 181        4PX        -0.00042   0.00000   0.00000  -0.00028   0.00000
 182        4PY         0.00000  -0.00150   0.00060   0.00000  -0.00098
 183        4PZ         0.00000   0.00043  -0.00031   0.00000   0.00018
 184        5D 0        0.00000   0.00004  -0.00002   0.00000   0.00004
 185        5D+1        0.00002   0.00000   0.00000   0.00002   0.00000
 186        5D-1        0.00000   0.00004  -0.00002   0.00000   0.00000
 187        5D+2        0.00000   0.00006  -0.00003   0.00000   0.00005
 188        5D-2       -0.00007   0.00000   0.00000  -0.00003   0.00000
                           6         7         8         9        10
                        (A1)--O   (A1)--O   (B2)--O   (E)--O    (E)--O
     Eigenvalues --  -101.24090-101.24089-101.24088  -9.17483  -9.17483
   1 1   Mo 1S         -0.00013  -0.00003   0.00000   0.00000   0.00000
   2        2S          0.00011   0.00000   0.00000   0.00000   0.00000
   3        3S         -0.00927  -0.00138   0.00000   0.00000   0.00000
   4        4PX         0.00000   0.00000   0.00000  -0.00301   0.00000
   5        4PY         0.00000   0.00000   0.00000   0.00000   0.00301
   6        4PZ         0.00006  -0.00008   0.00000   0.00000   0.00000
   7        5PX         0.00000   0.00000   0.00000  -0.03407   0.00000
   8        5PY         0.00000   0.00000   0.00000   0.00000   0.03407
   9        5PZ         0.00146  -0.00056   0.00000   0.00000   0.00000
  10        6PX         0.00000   0.00000   0.00000   0.00075   0.00000
  11        6PY         0.00000   0.00000   0.00000   0.00000  -0.00075
  12        6PZ         0.00120   0.00032   0.00000   0.00000   0.00000
  13        7D 0       -0.00004   0.00000   0.00000   0.00000   0.00000
  14        7D+1        0.00000   0.00000   0.00000  -0.00017   0.00000
  15        7D-1        0.00000   0.00000   0.00000   0.00000   0.00017
  16        7D+2        0.00000   0.00000  -0.00003   0.00000   0.00000
  17        7D-2        0.00000   0.00000   0.00000   0.00000   0.00000
  18        8D 0        0.00038   0.00043   0.00000   0.00000   0.00000
  19        8D+1        0.00000   0.00000   0.00000   0.00131   0.00000
  20        8D-1        0.00000   0.00000   0.00000   0.00000  -0.00131
  21        8D+2        0.00000   0.00000   0.00108   0.00000   0.00000
  22        8D-2        0.00000   0.00000   0.00000   0.00000   0.00000
  23 2   Mo 1S          0.00012  -0.00005   0.00000   0.00000   0.00000
  24        2S         -0.00011   0.00002   0.00000   0.00000   0.00000
  25        3S          0.00891  -0.00293   0.00000   0.00000   0.00000
  26        4PX         0.00000   0.00000   0.00000   0.00286   0.00000
  27        4PY         0.00000   0.00000   0.00000   0.00000  -0.00286
  28        4PZ         0.00007   0.00007   0.00000   0.00000   0.00000
  29        5PX         0.00000   0.00000   0.00000   0.03250   0.00000
  30        5PY         0.00000   0.00000   0.00000   0.00000  -0.03250
  31        5PZ         0.00153   0.00030   0.00000   0.00000   0.00000
  32        6PX         0.00000   0.00000   0.00000  -0.00081   0.00000
  33        6PY         0.00000   0.00000   0.00000   0.00000   0.00081
  34        6PZ         0.00113  -0.00051   0.00000   0.00000   0.00000
  35        7D 0        0.00004  -0.00001   0.00000   0.00000   0.00000
  36        7D+1        0.00000   0.00000   0.00000  -0.00017   0.00000
  37        7D-1        0.00000   0.00000   0.00000   0.00000   0.00017
  38        7D+2        0.00000   0.00000  -0.00002   0.00000   0.00000
  39        7D-2        0.00000   0.00000   0.00000   0.00000   0.00000
  40        8D 0       -0.00030   0.00048   0.00000   0.00000   0.00000
  41        8D+1        0.00000   0.00000   0.00000   0.00166   0.00000
  42        8D-1        0.00000   0.00000   0.00000   0.00000  -0.00166
  43        8D+2        0.00000   0.00000   0.00111   0.00000   0.00000
  44        8D-2        0.00000   0.00000   0.00000   0.00000   0.00000
  45 3   Cl 1S         -0.32127   0.38082   0.36021   0.00000   0.13467
  46        2S         -0.00408   0.00485   0.00459   0.00000  -0.48500
  47        2PX         0.00000   0.00000   0.00000   0.00004   0.00000
  48        2PY         0.00001  -0.00001  -0.00003   0.00000   0.00097
  49        2PZ         0.00000   0.00000   0.00000   0.00000  -0.00007
  50        3S          0.00176  -0.00201  -0.00185   0.00000  -0.02286
  51        3PX         0.00000   0.00000   0.00000  -0.00019   0.00000
  52        3PY        -0.00004   0.00003   0.00012   0.00000   0.00095
  53        3PZ         0.00001  -0.00002   0.00002   0.00000  -0.00036
  54        4S         -0.00202   0.00214   0.00182   0.00000   0.02478
  55        4PX         0.00000   0.00000   0.00000  -0.00200   0.00000
  56        4PY         0.00035  -0.00034  -0.00067   0.00000  -0.00734
  57        4PZ        -0.00012   0.00018   0.00013   0.00000   0.00219
  58        5D 0        0.00000   0.00000  -0.00003   0.00000  -0.00011
  59        5D+1        0.00000   0.00000   0.00000  -0.00009   0.00000
  60        5D-1        0.00003  -0.00002  -0.00004   0.00000  -0.00015
  61        5D+2        0.00002  -0.00002  -0.00004   0.00000  -0.00017
  62        5D-2        0.00000   0.00000   0.00000   0.00029   0.00000
  63 4   Cl 1S         -0.32127   0.38082  -0.36021   0.13467   0.00000
  64        2S         -0.00408   0.00485  -0.00459  -0.48500   0.00000
  65        2PX        -0.00001   0.00001  -0.00003  -0.00097   0.00000
  66        2PY         0.00000   0.00000   0.00000   0.00000  -0.00004
  67        2PZ         0.00000   0.00000   0.00000  -0.00007   0.00000
  68        3S          0.00176  -0.00201   0.00185  -0.02286   0.00000
  69        3PX         0.00004  -0.00003   0.00012  -0.00095   0.00000
  70        3PY         0.00000   0.00000   0.00000   0.00000   0.00019
  71        3PZ         0.00001  -0.00002  -0.00002  -0.00036   0.00000
  72        4S         -0.00202   0.00214  -0.00182   0.02478   0.00000
  73        4PX        -0.00035   0.00034  -0.00067   0.00734   0.00000
  74        4PY         0.00000   0.00000   0.00000   0.00000   0.00200
  75        4PZ        -0.00012   0.00018  -0.00013   0.00219   0.00000
  76        5D 0        0.00000   0.00000   0.00003  -0.00011   0.00000
  77        5D+1       -0.00003   0.00002  -0.00004   0.00015   0.00000
  78        5D-1        0.00000   0.00000   0.00000   0.00000   0.00009
  79        5D+2       -0.00002   0.00002  -0.00004   0.00017   0.00000
  80        5D-2        0.00000   0.00000   0.00000   0.00000   0.00029
  81 5   Cl 1S         -0.32127   0.38082  -0.36021  -0.13467   0.00000
  82        2S         -0.00408   0.00485  -0.00459   0.48500   0.00000
  83        2PX         0.00001  -0.00001   0.00003  -0.00097   0.00000
  84        2PY         0.00000   0.00000   0.00000   0.00000  -0.00004
  85        2PZ         0.00000   0.00000   0.00000   0.00007   0.00000
  86        3S          0.00176  -0.00201   0.00185   0.02286   0.00000
  87        3PX        -0.00004   0.00003  -0.00012  -0.00095   0.00000
  88        3PY         0.00000   0.00000   0.00000   0.00000   0.00019
  89        3PZ         0.00001  -0.00002  -0.00002   0.00036   0.00000
  90        4S         -0.00202   0.00214  -0.00182  -0.02478   0.00000
  91        4PX         0.00035  -0.00034   0.00067   0.00734   0.00000
  92        4PY         0.00000   0.00000   0.00000   0.00000   0.00200
  93        4PZ        -0.00012   0.00018  -0.00013  -0.00219   0.00000
  94        5D 0        0.00000   0.00000   0.00003   0.00011   0.00000
  95        5D+1        0.00003  -0.00002   0.00004   0.00015   0.00000
  96        5D-1        0.00000   0.00000   0.00000   0.00000   0.00009
  97        5D+2       -0.00002   0.00002  -0.00004  -0.00017   0.00000
  98        5D-2        0.00000   0.00000   0.00000   0.00000  -0.00029
  99 6   Cl 1S         -0.32127   0.38082   0.36021   0.00000  -0.13467
 100        2S         -0.00408   0.00485   0.00459   0.00000   0.48500
 101        2PX         0.00000   0.00000   0.00000   0.00004   0.00000
 102        2PY        -0.00001   0.00001   0.00003   0.00000   0.00097
 103        2PZ         0.00000   0.00000   0.00000   0.00000   0.00007
 104        3S          0.00176  -0.00201  -0.00185   0.00000   0.02286
 105        3PX         0.00000   0.00000   0.00000  -0.00019   0.00000
 106        3PY         0.00004  -0.00003  -0.00012   0.00000   0.00095
 107        3PZ         0.00001  -0.00002   0.00002   0.00000   0.00036
 108        4S         -0.00202   0.00214   0.00182   0.00000  -0.02478
 109        4PX         0.00000   0.00000   0.00000  -0.00200   0.00000
 110        4PY        -0.00035   0.00034   0.00067   0.00000  -0.00734
 111        4PZ        -0.00012   0.00018   0.00013   0.00000  -0.00219
 112        5D 0        0.00000   0.00000  -0.00003   0.00000   0.00011
 113        5D+1        0.00000   0.00000   0.00000  -0.00009   0.00000
 114        5D-1       -0.00003   0.00002   0.00004   0.00000  -0.00015
 115        5D+2        0.00002  -0.00002  -0.00004   0.00000   0.00017
 116        5D-2        0.00000   0.00000   0.00000  -0.00029   0.00000
 117 7   Cl 1S          0.38081   0.32128   0.34422   0.00000  -0.15039
 118        2S          0.00484   0.00409   0.00438   0.00000   0.54160
 119        2PX         0.00000   0.00000   0.00000  -0.00004   0.00000
 120        2PY        -0.00001  -0.00001  -0.00003   0.00000  -0.00109
 121        2PZ         0.00000   0.00000   0.00001   0.00000  -0.00008
 122        3S         -0.00207  -0.00168  -0.00176   0.00000   0.02532
 123        3PX         0.00000   0.00000   0.00000   0.00019   0.00000
 124        3PY         0.00004   0.00002   0.00012   0.00000  -0.00105
 125        3PZ         0.00002   0.00002  -0.00003   0.00000  -0.00037
 126        4S          0.00235   0.00177   0.00173   0.00000  -0.02687
 127        4PX         0.00000   0.00000   0.00000   0.00216   0.00000
 128        4PY        -0.00040  -0.00027  -0.00064   0.00000   0.00794
 129        4PZ        -0.00015  -0.00016  -0.00011   0.00000   0.00229
 130        5D 0        0.00000  -0.00001  -0.00002   0.00000   0.00013
 131        5D+1        0.00000   0.00000   0.00000  -0.00011   0.00000
 132        5D-1        0.00003   0.00002   0.00004   0.00000  -0.00015
 133        5D+2       -0.00002  -0.00001  -0.00004   0.00000   0.00019
 134        5D-2        0.00000   0.00000   0.00000  -0.00031   0.00000
 135 8   Cl 1S          0.38081   0.32128  -0.34422  -0.15039   0.00000
 136        2S          0.00484   0.00409  -0.00438   0.54160   0.00000
 137        2PX         0.00001   0.00001  -0.00003   0.00109   0.00000
 138        2PY         0.00000   0.00000   0.00000   0.00000   0.00004
 139        2PZ         0.00000   0.00000  -0.00001  -0.00008   0.00000
 140        3S         -0.00207  -0.00168   0.00176   0.02532   0.00000
 141        3PX        -0.00004  -0.00002   0.00012   0.00105   0.00000
 142        3PY         0.00000   0.00000   0.00000   0.00000  -0.00019
 143        3PZ         0.00002   0.00002   0.00003  -0.00037   0.00000
 144        4S          0.00235   0.00177  -0.00173  -0.02687   0.00000
 145        4PX         0.00040   0.00027  -0.00064  -0.00794   0.00000
 146        4PY         0.00000   0.00000   0.00000   0.00000  -0.00216
 147        4PZ        -0.00015  -0.00016   0.00011   0.00229   0.00000
 148        5D 0        0.00000  -0.00001   0.00002   0.00013   0.00000
 149        5D+1       -0.00003  -0.00002   0.00004   0.00015   0.00000
 150        5D-1        0.00000   0.00000   0.00000   0.00000   0.00011
 151        5D+2        0.00002   0.00001  -0.00004  -0.00019   0.00000
 152        5D-2        0.00000   0.00000   0.00000   0.00000  -0.00031
 153 9   Cl 1S          0.38081   0.32128  -0.34422   0.15039   0.00000
 154        2S          0.00484   0.00409  -0.00438  -0.54160   0.00000
 155        2PX        -0.00001  -0.00001   0.00003   0.00109   0.00000
 156        2PY         0.00000   0.00000   0.00000   0.00000   0.00004
 157        2PZ         0.00000   0.00000  -0.00001   0.00008   0.00000
 158        3S         -0.00207  -0.00168   0.00176  -0.02532   0.00000
 159        3PX         0.00004   0.00002  -0.00012   0.00105   0.00000
 160        3PY         0.00000   0.00000   0.00000   0.00000  -0.00019
 161        3PZ         0.00002   0.00002   0.00003   0.00037   0.00000
 162        4S          0.00235   0.00177  -0.00173   0.02687   0.00000
 163        4PX        -0.00040  -0.00027   0.00064  -0.00794   0.00000
 164        4PY         0.00000   0.00000   0.00000   0.00000  -0.00216
 165        4PZ        -0.00015  -0.00016   0.00011  -0.00229   0.00000
 166        5D 0        0.00000  -0.00001   0.00002  -0.00013   0.00000
 167        5D+1        0.00003   0.00002  -0.00004   0.00015   0.00000
 168        5D-1        0.00000   0.00000   0.00000   0.00000   0.00011
 169        5D+2        0.00002   0.00001  -0.00004   0.00019   0.00000
 170        5D-2        0.00000   0.00000   0.00000   0.00000   0.00031
 171 10  Cl 1S          0.38081   0.32128   0.34422   0.00000   0.15039
 172        2S          0.00484   0.00409   0.00438   0.00000  -0.54160
 173        2PX         0.00000   0.00000   0.00000  -0.00004   0.00000
 174        2PY         0.00001   0.00001   0.00003   0.00000  -0.00109
 175        2PZ         0.00000   0.00000   0.00001   0.00000   0.00008
 176        3S         -0.00207  -0.00168  -0.00176   0.00000  -0.02532
 177        3PX         0.00000   0.00000   0.00000   0.00019   0.00000
 178        3PY        -0.00004  -0.00002  -0.00012   0.00000  -0.00105
 179        3PZ         0.00002   0.00002  -0.00003   0.00000   0.00037
 180        4S          0.00235   0.00177   0.00173   0.00000   0.02687
 181        4PX         0.00000   0.00000   0.00000   0.00216   0.00000
 182        4PY         0.00040   0.00027   0.00064   0.00000   0.00794
 183        4PZ        -0.00015  -0.00016  -0.00011   0.00000  -0.00229
 184        5D 0        0.00000  -0.00001  -0.00002   0.00000  -0.00013
 185        5D+1        0.00000   0.00000   0.00000  -0.00011   0.00000
 186        5D-1       -0.00003  -0.00002  -0.00004   0.00000  -0.00015
 187        5D+2       -0.00002  -0.00001  -0.00004   0.00000  -0.00019
 188        5D-2        0.00000   0.00000   0.00000   0.00031   0.00000
                          11        12        13        14        15
                        (B2)--O   (E)--O    (E)--O    (A1)--O   (A1)--O
     Eigenvalues --    -9.17478  -9.17475  -9.17475  -9.17474  -9.17472
   1 1   Mo 1S          0.00000   0.00000   0.00000   0.00072  -0.00001
   2        2S          0.00000   0.00000   0.00000  -0.00040   0.00004
   3        3S          0.00000   0.00000   0.00000   0.05138   0.00002
   4        4PX         0.00000   0.00000  -0.00119   0.00000   0.00000
   5        4PY         0.00000   0.00119   0.00000   0.00000   0.00000
   6        4PZ         0.00000   0.00000   0.00000  -0.00037   0.00048
   7        5PX         0.00000   0.00000  -0.01228   0.00000   0.00000
   8        5PY         0.00000   0.01228   0.00000   0.00000   0.00000
   9        5PZ         0.00000   0.00000   0.00000  -0.00813   0.00439
  10        6PX         0.00000   0.00000  -0.00055   0.00000   0.00000
  11        6PY         0.00000   0.00055   0.00000   0.00000   0.00000
  12        6PZ         0.00000   0.00000   0.00000  -0.00666  -0.00072
  13        7D 0        0.00000   0.00000   0.00000   0.00025   0.00004
  14        7D+1        0.00000   0.00000   0.00005   0.00000   0.00000
  15        7D-1        0.00000  -0.00005   0.00000   0.00000   0.00000
  16        7D+2       -0.00048   0.00000   0.00000   0.00000   0.00000
  17        7D-2        0.00000   0.00000   0.00000   0.00000   0.00000
  18        8D 0        0.00000   0.00000   0.00000  -0.00198  -0.00207
  19        8D+1        0.00000   0.00000  -0.00338   0.00000   0.00000
  20        8D-1        0.00000   0.00338   0.00000   0.00000   0.00000
  21        8D+2       -0.00422   0.00000   0.00000   0.00000   0.00000
  22        8D-2        0.00000   0.00000   0.00000   0.00000   0.00000
  23 2   Mo 1S          0.00000   0.00000   0.00000  -0.00065   0.00032
  24        2S          0.00000   0.00000   0.00000   0.00037  -0.00014
  25        3S          0.00000   0.00000   0.00000  -0.04580   0.02330
  26        4PX         0.00000   0.00000  -0.00151   0.00000   0.00000
  27        4PY         0.00000   0.00151   0.00000   0.00000   0.00000
  28        4PZ         0.00000   0.00000   0.00000  -0.00054  -0.00026
  29        5PX         0.00000   0.00000  -0.01593   0.00000   0.00000
  30        5PY         0.00000   0.01593   0.00000   0.00000   0.00000
  31        5PZ         0.00000   0.00000   0.00000  -0.00922  -0.00022
  32        6PX         0.00000   0.00000  -0.00048   0.00000   0.00000
  33        6PY         0.00000   0.00048   0.00000   0.00000   0.00000
  34        6PZ         0.00000   0.00000   0.00000  -0.00560   0.00366
  35        7D 0        0.00000   0.00000   0.00000  -0.00020   0.00015
  36        7D+1        0.00000   0.00000  -0.00003   0.00000   0.00000
  37        7D-1        0.00000   0.00003   0.00000   0.00000   0.00000
  38        7D+2        0.00051   0.00000   0.00000   0.00000   0.00000
  39        7D-2        0.00000   0.00000   0.00000   0.00000   0.00000
  40        8D 0        0.00000   0.00000   0.00000   0.00083  -0.00273
  41        8D+1        0.00000   0.00000   0.00323   0.00000   0.00000
  42        8D-1        0.00000  -0.00323   0.00000   0.00000   0.00000
  43        8D+2        0.00356   0.00000   0.00000   0.00000   0.00000
  44        8D-2        0.00000   0.00000   0.00000   0.00000   0.00000
  45 3   Cl 1S          0.09511  -0.15044   0.00000   0.07471  -0.12171
  46        2S         -0.34229   0.54149   0.00000  -0.26888   0.43797
  47        2PX         0.00000   0.00000   0.00000   0.00000   0.00000
  48        2PY         0.00066  -0.00111   0.00000   0.00058  -0.00096
  49        2PZ         0.00000   0.00012   0.00000  -0.00006   0.00009
  50        3S         -0.01482   0.02355   0.00000  -0.01153   0.01836
  51        3PX         0.00000   0.00000  -0.00005   0.00000   0.00000
  52        3PY         0.00080  -0.00091   0.00000   0.00025  -0.00031
  53        3PZ        -0.00054   0.00013   0.00000  -0.00007   0.00013
  54        4S          0.00978  -0.02031   0.00000   0.00930  -0.01387
  55        4PX         0.00000   0.00000   0.00162   0.00000   0.00000
  56        4PY        -0.00298   0.00576   0.00000  -0.00147   0.00211
  57        4PZ         0.00161  -0.00110   0.00000   0.00046  -0.00104
  58        5D 0       -0.00004   0.00014   0.00000   0.00005  -0.00003
  59        5D+1        0.00000   0.00000   0.00012   0.00000   0.00000
  60        5D-1       -0.00007  -0.00002   0.00000  -0.00008   0.00007
  61        5D+2       -0.00008   0.00017   0.00000  -0.00001   0.00001
  62        5D-2        0.00000   0.00000  -0.00017   0.00000   0.00000
  63 4   Cl 1S         -0.09511   0.00000  -0.15044   0.07471  -0.12171
  64        2S          0.34229   0.00000   0.54149  -0.26888   0.43797
  65        2PX         0.00066   0.00000   0.00111  -0.00058   0.00096
  66        2PY         0.00000   0.00000   0.00000   0.00000   0.00000
  67        2PZ         0.00000   0.00000   0.00012  -0.00006   0.00009
  68        3S          0.01482   0.00000   0.02355  -0.01153   0.01836
  69        3PX         0.00080   0.00000   0.00091  -0.00025   0.00031
  70        3PY         0.00000   0.00005   0.00000   0.00000   0.00000
  71        3PZ         0.00054   0.00000   0.00013  -0.00007   0.00013
  72        4S         -0.00978   0.00000  -0.02031   0.00930  -0.01387
  73        4PX        -0.00298   0.00000  -0.00576   0.00147  -0.00211
  74        4PY         0.00000  -0.00162   0.00000   0.00000   0.00000
  75        4PZ        -0.00161   0.00000  -0.00110   0.00046  -0.00104
  76        5D 0        0.00004   0.00000   0.00014   0.00005  -0.00003
  77        5D+1       -0.00007   0.00000   0.00002   0.00008  -0.00007
  78        5D-1        0.00000  -0.00012   0.00000   0.00000   0.00000
  79        5D+2       -0.00008   0.00000  -0.00017   0.00001  -0.00001
  80        5D-2        0.00000  -0.00017   0.00000   0.00000   0.00000
  81 5   Cl 1S         -0.09511   0.00000   0.15044   0.07471  -0.12171
  82        2S          0.34229   0.00000  -0.54149  -0.26888   0.43797
  83        2PX        -0.00066   0.00000   0.00111   0.00058  -0.00096
  84        2PY         0.00000   0.00000   0.00000   0.00000   0.00000
  85        2PZ         0.00000   0.00000  -0.00012  -0.00006   0.00009
  86        3S          0.01482   0.00000  -0.02355  -0.01153   0.01836
  87        3PX        -0.00080   0.00000   0.00091   0.00025  -0.00031
  88        3PY         0.00000   0.00005   0.00000   0.00000   0.00000
  89        3PZ         0.00054   0.00000  -0.00013  -0.00007   0.00013
  90        4S         -0.00978   0.00000   0.02031   0.00930  -0.01387
  91        4PX         0.00298   0.00000  -0.00576  -0.00147   0.00211
  92        4PY         0.00000  -0.00162   0.00000   0.00000   0.00000
  93        4PZ        -0.00161   0.00000   0.00110   0.00046  -0.00104
  94        5D 0        0.00004   0.00000  -0.00014   0.00005  -0.00003
  95        5D+1        0.00007   0.00000   0.00002  -0.00008   0.00007
  96        5D-1        0.00000  -0.00012   0.00000   0.00000   0.00000
  97        5D+2       -0.00008   0.00000   0.00017   0.00001  -0.00001
  98        5D-2        0.00000   0.00017   0.00000   0.00000   0.00000
  99 6   Cl 1S          0.09511   0.15044   0.00000   0.07471  -0.12171
 100        2S         -0.34229  -0.54149   0.00000  -0.26888   0.43797
 101        2PX         0.00000   0.00000   0.00000   0.00000   0.00000
 102        2PY        -0.00066  -0.00111   0.00000  -0.00058   0.00096
 103        2PZ         0.00000  -0.00012   0.00000  -0.00006   0.00009
 104        3S         -0.01482  -0.02355   0.00000  -0.01153   0.01836
 105        3PX         0.00000   0.00000  -0.00005   0.00000   0.00000
 106        3PY        -0.00080  -0.00091   0.00000  -0.00025   0.00031
 107        3PZ        -0.00054  -0.00013   0.00000  -0.00007   0.00013
 108        4S          0.00978   0.02031   0.00000   0.00930  -0.01387
 109        4PX         0.00000   0.00000   0.00162   0.00000   0.00000
 110        4PY         0.00298   0.00576   0.00000   0.00147  -0.00211
 111        4PZ         0.00161   0.00110   0.00000   0.00046  -0.00104
 112        5D 0       -0.00004  -0.00014   0.00000   0.00005  -0.00003
 113        5D+1        0.00000   0.00000   0.00012   0.00000   0.00000
 114        5D-1        0.00007  -0.00002   0.00000   0.00008  -0.00007
 115        5D+2       -0.00008  -0.00017   0.00000  -0.00001   0.00001
 116        5D-2        0.00000   0.00000   0.00017   0.00000   0.00000
 117 7   Cl 1S         -0.10651  -0.13472   0.00000  -0.12171  -0.07472
 118        2S          0.38328   0.48488   0.00000   0.43798   0.26886
 119        2PX         0.00000   0.00000   0.00001   0.00000   0.00000
 120        2PY        -0.00074  -0.00099   0.00000  -0.00095  -0.00059
 121        2PZ        -0.00001  -0.00011   0.00000  -0.00010  -0.00005
 122        3S          0.01650   0.02089   0.00000   0.01859   0.01116
 123        3PX         0.00000   0.00000  -0.00007   0.00000   0.00000
 124        3PY        -0.00088  -0.00080   0.00000  -0.00036  -0.00016
 125        3PZ        -0.00052  -0.00009   0.00000  -0.00012  -0.00008
 126        4S         -0.01093  -0.01747   0.00000  -0.01457  -0.00816
 127        4PX         0.00000   0.00000   0.00139   0.00000   0.00000
 128        4PY         0.00337   0.00492   0.00000   0.00226   0.00122
 129        4PZ         0.00168   0.00085   0.00000   0.00088   0.00072
 130        5D 0        0.00005   0.00012   0.00000  -0.00005   0.00000
 131        5D+1        0.00000   0.00000  -0.00010   0.00000   0.00000
 132        5D-1       -0.00009   0.00003   0.00000  -0.00011  -0.00003
 133        5D+2        0.00009   0.00015   0.00000   0.00002   0.00000
 134        5D-2        0.00000   0.00000  -0.00014   0.00000   0.00000
 135 8   Cl 1S          0.10651   0.00000  -0.13472  -0.12171  -0.07472
 136        2S         -0.38328   0.00000   0.48488   0.43798   0.26886
 137        2PX        -0.00074   0.00000   0.00099   0.00095   0.00059
 138        2PY         0.00000  -0.00001   0.00000   0.00000   0.00000
 139        2PZ         0.00001   0.00000  -0.00011  -0.00010  -0.00005
 140        3S         -0.01650   0.00000   0.02089   0.01859   0.01116
 141        3PX        -0.00088   0.00000   0.00080   0.00036   0.00016
 142        3PY         0.00000   0.00007   0.00000   0.00000   0.00000
 143        3PZ         0.00052   0.00000  -0.00009  -0.00012  -0.00008
 144        4S          0.01093   0.00000  -0.01747  -0.01457  -0.00816
 145        4PX         0.00337   0.00000  -0.00492  -0.00226  -0.00122
 146        4PY         0.00000  -0.00139   0.00000   0.00000   0.00000
 147        4PZ        -0.00168   0.00000   0.00085   0.00088   0.00072
 148        5D 0       -0.00005   0.00000   0.00012  -0.00005   0.00000
 149        5D+1       -0.00009   0.00000  -0.00003   0.00011   0.00003
 150        5D-1        0.00000   0.00010   0.00000   0.00000   0.00000
 151        5D+2        0.00009   0.00000  -0.00015  -0.00002   0.00000
 152        5D-2        0.00000  -0.00014   0.00000   0.00000   0.00000
 153 9   Cl 1S          0.10651   0.00000   0.13472  -0.12171  -0.07472
 154        2S         -0.38328   0.00000  -0.48488   0.43798   0.26886
 155        2PX         0.00074   0.00000   0.00099  -0.00095  -0.00059
 156        2PY         0.00000  -0.00001   0.00000   0.00000   0.00000
 157        2PZ         0.00001   0.00000   0.00011  -0.00010  -0.00005
 158        3S         -0.01650   0.00000  -0.02089   0.01859   0.01116
 159        3PX         0.00088   0.00000   0.00080  -0.00036  -0.00016
 160        3PY         0.00000   0.00007   0.00000   0.00000   0.00000
 161        3PZ         0.00052   0.00000   0.00009  -0.00012  -0.00008
 162        4S          0.01093   0.00000   0.01747  -0.01457  -0.00816
 163        4PX        -0.00337   0.00000  -0.00492   0.00226   0.00122
 164        4PY         0.00000  -0.00139   0.00000   0.00000   0.00000
 165        4PZ        -0.00168   0.00000  -0.00085   0.00088   0.00072
 166        5D 0       -0.00005   0.00000  -0.00012  -0.00005   0.00000
 167        5D+1        0.00009   0.00000  -0.00003  -0.00011  -0.00003
 168        5D-1        0.00000   0.00010   0.00000   0.00000   0.00000
 169        5D+2        0.00009   0.00000   0.00015  -0.00002   0.00000
 170        5D-2        0.00000   0.00014   0.00000   0.00000   0.00000
 171 10  Cl 1S         -0.10651   0.13472   0.00000  -0.12171  -0.07472
 172        2S          0.38328  -0.48488   0.00000   0.43798   0.26886
 173        2PX         0.00000   0.00000   0.00001   0.00000   0.00000
 174        2PY         0.00074  -0.00099   0.00000   0.00095   0.00059
 175        2PZ        -0.00001   0.00011   0.00000  -0.00010  -0.00005
 176        3S          0.01650  -0.02089   0.00000   0.01859   0.01116
 177        3PX         0.00000   0.00000  -0.00007   0.00000   0.00000
 178        3PY         0.00088  -0.00080   0.00000   0.00036   0.00016
 179        3PZ        -0.00052   0.00009   0.00000  -0.00012  -0.00008
 180        4S         -0.01093   0.01747   0.00000  -0.01457  -0.00816
 181        4PX         0.00000   0.00000   0.00139   0.00000   0.00000
 182        4PY        -0.00337   0.00492   0.00000  -0.00226  -0.00122
 183        4PZ         0.00168  -0.00085   0.00000   0.00088   0.00072
 184        5D 0        0.00005  -0.00012   0.00000  -0.00005   0.00000
 185        5D+1        0.00000   0.00000  -0.00010   0.00000   0.00000
 186        5D-1        0.00009   0.00003   0.00000   0.00011   0.00003
 187        5D+2        0.00009  -0.00015   0.00000   0.00002   0.00000
 188        5D-2        0.00000   0.00000   0.00014   0.00000   0.00000
                          16        17        18        19        20
                        (B2)--O   (B2)--O   (A1)--O   (E)--O    (E)--O
     Eigenvalues --    -9.17469  -6.93393  -6.93387  -6.93387  -6.93387
   1 1   Mo 1S          0.00000   0.00000   0.00111   0.00000   0.00000
   2        2S          0.00000   0.00000  -0.00091   0.00000   0.00000
   3        3S          0.00000   0.00000   0.00737   0.00000   0.00000
   4        4PX         0.00000   0.00000   0.00000  -0.00110   0.00000
   5        4PY         0.00000   0.00000   0.00000   0.00000  -0.00110
   6        4PZ         0.00000   0.00000  -0.00076   0.00000   0.00000
   7        5PX         0.00000   0.00000   0.00000  -0.00489   0.00000
   8        5PY         0.00000   0.00000   0.00000   0.00000  -0.00489
   9        5PZ         0.00000   0.00000  -0.00541   0.00000   0.00000
  10        6PX         0.00000   0.00000   0.00000   0.00480   0.00000
  11        6PY         0.00000   0.00000   0.00000   0.00000   0.00480
  12        6PZ         0.00000   0.00000   0.00040   0.00000   0.00000
  13        7D 0        0.00000   0.00000  -0.00017   0.00000   0.00000
  14        7D+1        0.00000   0.00000   0.00000   0.00028   0.00000
  15        7D-1        0.00000   0.00000   0.00000   0.00000   0.00028
  16        7D+2        0.00025   0.00138   0.00000   0.00000   0.00000
  17        7D-2        0.00000   0.00000   0.00000   0.00000   0.00000
  18        8D 0        0.00000   0.00000  -0.00070   0.00000   0.00000
  19        8D+1        0.00000   0.00000   0.00000  -0.00105   0.00000
  20        8D-1        0.00000   0.00000   0.00000   0.00000  -0.00105
  21        8D+2       -0.00550  -0.02050   0.00000   0.00000   0.00000
  22        8D-2        0.00000   0.00000   0.00000   0.00000   0.00000
  23 2   Mo 1S          0.00000   0.00000  -0.00035   0.00000   0.00000
  24        2S          0.00000   0.00000   0.00093   0.00000   0.00000
  25        3S          0.00000   0.00000  -0.00611   0.00000   0.00000
  26        4PX         0.00000   0.00000   0.00000   0.00057   0.00000
  27        4PY         0.00000   0.00000   0.00000   0.00000   0.00057
  28        4PZ         0.00000   0.00000  -0.00035   0.00000   0.00000
  29        5PX         0.00000   0.00000   0.00000   0.00128   0.00000
  30        5PY         0.00000   0.00000   0.00000   0.00000   0.00128
  31        5PZ         0.00000   0.00000  -0.00686   0.00000   0.00000
  32        6PX         0.00000   0.00000   0.00000  -0.00334   0.00000
  33        6PY         0.00000   0.00000   0.00000   0.00000  -0.00334
  34        6PZ         0.00000   0.00000   0.00050   0.00000   0.00000
  35        7D 0        0.00000   0.00000   0.00022   0.00000   0.00000
  36        7D+1        0.00000   0.00000   0.00000   0.00020   0.00000
  37        7D-1        0.00000   0.00000   0.00000   0.00000   0.00020
  38        7D+2        0.00020  -0.00140   0.00000   0.00000   0.00000
  39        7D-2        0.00000   0.00000   0.00000   0.00000   0.00000
  40        8D 0        0.00000   0.00000  -0.00151   0.00000   0.00000
  41        8D+1        0.00000   0.00000   0.00000  -0.00088   0.00000
  42        8D-1        0.00000   0.00000   0.00000   0.00000  -0.00088
  43        8D+2       -0.00596   0.02042   0.00000   0.00000   0.00000
  44        8D-2        0.00000   0.00000   0.00000   0.00000   0.00000
  45 3   Cl 1S         -0.10653   0.00026   0.00015   0.00000   0.00022
  46        2S          0.38329  -0.00099  -0.00056   0.00000  -0.00072
  47        2PX         0.00000   0.00000   0.00000  -0.00050   0.00000
  48        2PY        -0.00076  -0.32300  -0.20226   0.00000  -0.27130
  49        2PZ         0.00012   0.09377   0.05778   0.00000   0.07907
  50        3S          0.01574   0.00045   0.00011   0.00000   0.00067
  51        3PX         0.00000   0.00000   0.00000  -0.00017   0.00000
  52        3PY        -0.00077  -0.01075  -0.00623   0.00000  -0.00843
  53        3PZ        -0.00008   0.00324   0.00177   0.00000   0.00264
  54        4S         -0.01067   0.00792  -0.00036   0.00000  -0.00126
  55        4PX         0.00000   0.00000   0.00000   0.00057   0.00000
  56        4PY         0.00365  -0.00026   0.00240   0.00000   0.00342
  57        4PZ        -0.00071   0.00042  -0.00052   0.00000  -0.00128
  58        5D 0        0.00009  -0.00005  -0.00006   0.00000  -0.00004
  59        5D+1        0.00000   0.00000   0.00000   0.00003   0.00000
  60        5D-1        0.00015  -0.00034  -0.00007   0.00000  -0.00006
  61        5D+2        0.00011  -0.00047  -0.00003   0.00000  -0.00004
  62        5D-2        0.00000   0.00000   0.00000  -0.00010   0.00000
  63 4   Cl 1S          0.10653  -0.00026   0.00015  -0.00022   0.00000
  64        2S         -0.38329   0.00099  -0.00056   0.00072   0.00000
  65        2PX        -0.00076  -0.32300   0.20226  -0.27130   0.00000
  66        2PY         0.00000   0.00000   0.00000   0.00000  -0.00050
  67        2PZ        -0.00012  -0.09377   0.05778  -0.07907   0.00000
  68        3S         -0.01574  -0.00045   0.00011  -0.00067   0.00000
  69        3PX        -0.00077  -0.01075   0.00623  -0.00843   0.00000
  70        3PY         0.00000   0.00000   0.00000   0.00000  -0.00017
  71        3PZ         0.00008  -0.00324   0.00177  -0.00264   0.00000
  72        4S          0.01067  -0.00792  -0.00036   0.00126   0.00000
  73        4PX         0.00365  -0.00026  -0.00240   0.00342   0.00000
  74        4PY         0.00000   0.00000   0.00000   0.00000   0.00057
  75        4PZ         0.00071  -0.00042  -0.00052   0.00128   0.00000
  76        5D 0       -0.00009   0.00005  -0.00006   0.00004   0.00000
  77        5D+1        0.00015  -0.00034   0.00007  -0.00006   0.00000
  78        5D-1        0.00000   0.00000   0.00000   0.00000   0.00003
  79        5D+2        0.00011  -0.00047   0.00003  -0.00004   0.00000
  80        5D-2        0.00000   0.00000   0.00000   0.00000   0.00010
  81 5   Cl 1S          0.10653  -0.00026   0.00015   0.00022   0.00000
  82        2S         -0.38329   0.00099  -0.00056  -0.00072   0.00000
  83        2PX         0.00076   0.32300  -0.20226  -0.27130   0.00000
  84        2PY         0.00000   0.00000   0.00000   0.00000  -0.00050
  85        2PZ        -0.00012  -0.09377   0.05778   0.07907   0.00000
  86        3S         -0.01574  -0.00045   0.00011   0.00067   0.00000
  87        3PX         0.00077   0.01075  -0.00623  -0.00843   0.00000
  88        3PY         0.00000   0.00000   0.00000   0.00000  -0.00017
  89        3PZ         0.00008  -0.00324   0.00177   0.00264   0.00000
  90        4S          0.01067  -0.00792  -0.00036  -0.00126   0.00000
  91        4PX        -0.00365   0.00026   0.00240   0.00342   0.00000
  92        4PY         0.00000   0.00000   0.00000   0.00000   0.00057
  93        4PZ         0.00071  -0.00042  -0.00052  -0.00128   0.00000
  94        5D 0       -0.00009   0.00005  -0.00006  -0.00004   0.00000
  95        5D+1       -0.00015   0.00034  -0.00007  -0.00006   0.00000
  96        5D-1        0.00000   0.00000   0.00000   0.00000   0.00003
  97        5D+2        0.00011  -0.00047   0.00003   0.00004   0.00000
  98        5D-2        0.00000   0.00000   0.00000   0.00000  -0.00010
  99 6   Cl 1S         -0.10653   0.00026   0.00015   0.00000  -0.00022
 100        2S          0.38329  -0.00099  -0.00056   0.00000   0.00072
 101        2PX         0.00000   0.00000   0.00000  -0.00050   0.00000
 102        2PY         0.00076   0.32300   0.20226   0.00000  -0.27130
 103        2PZ         0.00012   0.09377   0.05778   0.00000  -0.07907
 104        3S          0.01574   0.00045   0.00011   0.00000  -0.00067
 105        3PX         0.00000   0.00000   0.00000  -0.00017   0.00000
 106        3PY         0.00077   0.01075   0.00623   0.00000  -0.00843
 107        3PZ        -0.00008   0.00324   0.00177   0.00000  -0.00264
 108        4S         -0.01067   0.00792  -0.00036   0.00000   0.00126
 109        4PX         0.00000   0.00000   0.00000   0.00057   0.00000
 110        4PY        -0.00365   0.00026  -0.00240   0.00000   0.00342
 111        4PZ        -0.00071   0.00042  -0.00052   0.00000   0.00128
 112        5D 0        0.00009  -0.00005  -0.00006   0.00000   0.00004
 113        5D+1        0.00000   0.00000   0.00000   0.00003   0.00000
 114        5D-1       -0.00015   0.00034   0.00007   0.00000  -0.00006
 115        5D+2        0.00011  -0.00047  -0.00003   0.00000   0.00004
 116        5D-2        0.00000   0.00000   0.00000   0.00010   0.00000
 117 7   Cl 1S         -0.09514  -0.00028  -0.00032   0.00000  -0.00050
 118        2S          0.34229   0.00106   0.00122   0.00000   0.00163
 119        2PX         0.00000   0.00000   0.00000   0.00086   0.00000
 120        2PY        -0.00068   0.34897   0.43123   0.00000   0.61584
 121        2PZ        -0.00011   0.10087   0.12280   0.00000   0.17721
 122        3S          0.01397  -0.00051   0.00000   0.00000  -0.00144
 123        3PX         0.00000   0.00000   0.00000   0.00030   0.00000
 124        3PY        -0.00068   0.01154   0.01320   0.00000   0.01909
 125        3PZ         0.00014   0.00345   0.00375   0.00000   0.00567
 126        4S         -0.00949  -0.00787  -0.00095   0.00000   0.00334
 127        4PX         0.00000   0.00000   0.00000  -0.00088   0.00000
 128        4PY         0.00329   0.00000  -0.00392   0.00000  -0.00806
 129        4PZ         0.00053   0.00037  -0.00096   0.00000  -0.00260
 130        5D 0        0.00008   0.00004   0.00017   0.00000   0.00006
 131        5D+1        0.00000   0.00000   0.00000   0.00000   0.00000
 132        5D-1       -0.00014  -0.00035  -0.00014   0.00000  -0.00005
 133        5D+2        0.00010   0.00048   0.00012   0.00000   0.00009
 134        5D-2        0.00000   0.00000   0.00000   0.00016   0.00000
 135 8   Cl 1S          0.09514   0.00028  -0.00032   0.00050   0.00000
 136        2S         -0.34229  -0.00106   0.00122  -0.00163   0.00000
 137        2PX        -0.00068   0.34897  -0.43123   0.61584   0.00000
 138        2PY         0.00000   0.00000   0.00000   0.00000   0.00086
 139        2PZ         0.00011  -0.10087   0.12280  -0.17721   0.00000
 140        3S         -0.01397   0.00051   0.00000   0.00144   0.00000
 141        3PX        -0.00068   0.01154  -0.01320   0.01909   0.00000
 142        3PY         0.00000   0.00000   0.00000   0.00000   0.00030
 143        3PZ        -0.00014  -0.00345   0.00375  -0.00567   0.00000
 144        4S          0.00949   0.00787  -0.00095  -0.00334   0.00000
 145        4PX         0.00329   0.00000   0.00392  -0.00806   0.00000
 146        4PY         0.00000   0.00000   0.00000   0.00000  -0.00088
 147        4PZ        -0.00053  -0.00037  -0.00096   0.00260   0.00000
 148        5D 0       -0.00008  -0.00004   0.00017  -0.00006   0.00000
 149        5D+1       -0.00014  -0.00035   0.00014  -0.00005   0.00000
 150        5D-1        0.00000   0.00000   0.00000   0.00000   0.00000
 151        5D+2        0.00010   0.00048  -0.00012   0.00009   0.00000
 152        5D-2        0.00000   0.00000   0.00000   0.00000  -0.00016
 153 9   Cl 1S          0.09514   0.00028  -0.00032  -0.00050   0.00000
 154        2S         -0.34229  -0.00106   0.00122   0.00163   0.00000
 155        2PX         0.00068  -0.34897   0.43123   0.61584   0.00000
 156        2PY         0.00000   0.00000   0.00000   0.00000   0.00086
 157        2PZ         0.00011  -0.10087   0.12280   0.17721   0.00000
 158        3S         -0.01397   0.00051   0.00000  -0.00144   0.00000
 159        3PX         0.00068  -0.01154   0.01320   0.01909   0.00000
 160        3PY         0.00000   0.00000   0.00000   0.00000   0.00030
[...]
  81 5   Cl 1S          1.99963
  82        2S          1.99735
  83        2PX         1.99007
  84        2PY         1.99142
  85        2PZ         1.99145
  86        3S          1.40402
  87        3PX         1.12356
  88        3PY         1.23057
  89        3PZ         1.24486
  90        4S          0.53745
  91        4PX         0.54187
  92        4PY         0.60987
  93        4PZ         0.62640
  94        5D 0        0.00159
  95        5D+1        0.00254
  96        5D-1        0.00018
  97        5D+2        0.00321
  98        5D-2        0.00182
  99 6   Cl 1S          1.99963
 100        2S          1.99735
 101        2PX         1.99142
 102        2PY         1.99007
 103        2PZ         1.99145
 104        3S          1.40402
 105        3PX         1.23057
 106        3PY         1.12356
 107        3PZ         1.24486
 108        4S          0.53745
 109        4PX         0.60987
 110        4PY         0.54187
 111        4PZ         0.62640
 112        5D 0        0.00159
 113        5D+1        0.00018
 114        5D-1        0.00254
 115        5D+2        0.00321
 116        5D-2        0.00182
 117 7   Cl 1S          1.99963
 118        2S          1.99735
 119        2PX         1.99142
 120        2PY         1.99007
 121        2PZ         1.99145
 122        3S          1.40402
 123        3PX         1.23057
 124        3PY         1.12356
 125        3PZ         1.24487
 126        4S          0.53745
 127        4PX         0.60987
 128        4PY         0.54187
 129        4PZ         0.62641
 130        5D 0        0.00159
 131        5D+1        0.00018
 132        5D-1        0.00254
 133        5D+2        0.00321
 134        5D-2        0.00182
 135 8   Cl 1S          1.99963
 136        2S          1.99735
 137        2PX         1.99007
 138        2PY         1.99142
 139        2PZ         1.99145
 140        3S          1.40402
 141        3PX         1.12356
 142        3PY         1.23057
 143        3PZ         1.24487
 144        4S          0.53745
 145        4PX         0.54187
 146        4PY         0.60987
 147        4PZ         0.62641
 148        5D 0        0.00159
 149        5D+1        0.00254
 150        5D-1        0.00018
 151        5D+2        0.00321
 152        5D-2        0.00182
 153 9   Cl 1S          1.99963
 154        2S          1.99735
 155        2PX         1.99007
 156        2PY         1.99142
 157        2PZ         1.99145
 158        3S          1.40402
 159        3PX         1.12356
 160        3PY         1.23057
 161        3PZ         1.24487
 162        4S          0.53745
 163        4PX         0.54187
 164        4PY         0.60987
 165        4PZ         0.62641
 166        5D 0        0.00159
 167        5D+1        0.00254
 168        5D-1        0.00018
 169        5D+2        0.00321
 170        5D-2        0.00182
 171 10  Cl 1S          1.99963
 172        2S          1.99735
 173        2PX         1.99142
 174        2PY         1.99007
 175        2PZ         1.99145
 176        3S          1.40402
 177        3PX         1.23057
 178        3PY         1.12356
 179        3PZ         1.24487
 180        4S          0.53745
 181        4PX         0.60987
 182        4PY         0.54187
 183        4PZ         0.62641
 184        5D 0        0.00159
 185        5D+1        0.00018
 186        5D-1        0.00254
 187        5D+2        0.00321
 188        5D-2        0.00182
          Condensed to atoms (all electrons):
              1          2          3          4          5          6
     1  Mo  12.699591   0.063697   0.003965   0.003965   0.003965   0.003965
     2  Mo   0.063697  12.699558   0.257345   0.257345   0.257345   0.257345
     3  Cl   0.003965   0.257345  17.120843  -0.039552  -0.039552  -0.002878
     4  Cl   0.003965   0.257345  -0.039552  17.120843  -0.002878  -0.039552
     5  Cl   0.003965   0.257345  -0.039552  -0.002878  17.120843  -0.039552
     6  Cl   0.003965   0.257345  -0.002878  -0.039552  -0.039552  17.120843
     7  Cl   0.257347   0.003962  -0.003021   0.000339   0.000339   0.000044
     8  Cl   0.257347   0.003962   0.000339  -0.003021   0.000044   0.000339
     9  Cl   0.257347   0.003962   0.000339   0.000044  -0.003021   0.000339
    10  Cl   0.257347   0.003962   0.000044   0.000339   0.000339  -0.003021
              7          8          9         10
     1  Mo   0.257347   0.257347   0.257347   0.257347
     2  Mo   0.003962   0.003962   0.003962   0.003962
     3  Cl  -0.003021   0.000339   0.000339   0.000044
     4  Cl   0.000339  -0.003021   0.000044   0.000339
     5  Cl   0.000339   0.000044  -0.003021   0.000339
     6  Cl   0.000044   0.000339   0.000339  -0.003021
     7  Cl  17.120837  -0.039548  -0.039548  -0.002878
     8  Cl  -0.039548  17.120837  -0.002878  -0.039548
     9  Cl  -0.039548  -0.002878  17.120837  -0.039548
    10  Cl  -0.002878  -0.039548  -0.039548  17.120837
 Mulliken atomic charges:
              1
     1  Mo   0.191465
     2  Mo   0.191516
     3  Cl  -0.297872
     4  Cl  -0.297872
     5  Cl  -0.297872
     6  Cl  -0.297872
     7  Cl  -0.297873
     8  Cl  -0.297873
     9  Cl  -0.297873
    10  Cl  -0.297873
 Sum of Mulliken atomic charges =  -2.00000
 Mulliken charges with hydrogens summed into heavy atoms:
              1
     1  Mo   0.191465
     2  Mo   0.191516
     3  Cl  -0.297872
     4  Cl  -0.297872
     5  Cl  -0.297872
     6  Cl  -0.297872
     7  Cl  -0.297873
     8  Cl  -0.297873
     9  Cl  -0.297873
    10  Cl  -0.297873
 Sum of Mulliken charges with hydrogens summed into heavy atoms =  -2.00000
 Electronic spatial extent (au):  <R**2>=           4613.6091
 Charge=             -2.0000 electrons
 Dipole moment (field-independent basis, Debye):
    X=              0.0000    Y=              0.0000    Z=              0.0000  Tot=              0.0000
 Quadrupole moment (field-independent basis, Debye-Ang):
   XX=           -190.2490   YY=           -190.2490   ZZ=           -190.6954
   XY=              0.0000   XZ=              0.0000   YZ=              0.0000
 Traceless Quadrupole moment (field-independent basis, Debye-Ang):
   XX=              0.1488   YY=              0.1488   ZZ=             -0.2976
   XY=              0.0000   XZ=              0.0000   YZ=              0.0000
 Octapole moment (field-independent basis, Debye-Ang**2):
  XXX=              0.0000  YYY=              0.0000  ZZZ=              0.0023  XYY=              0.0000
  XXY=              0.0000  XXZ=             -0.0006  XZZ=              0.0000  YZZ=              0.0000
  YYZ=             -0.0006  XYZ=              0.0000
 Hexadecapole moment (field-independent basis, Debye-Ang**3):
 XXXX=          -2165.2133 YYYY=          -2165.2133 ZZZZ=          -2606.5753 XXXY=              0.0000
 XXXZ=              0.0000 YYYX=              0.0000 YYYZ=              0.0000 ZZZX=              0.0000
 ZZZY=              0.0000 XXYY=           -662.1208 XXZZ=           -858.1570 YYZZ=           -858.1570
 XXYZ=              0.0000 YYXZ=              0.0000 ZZXY=              0.0000
 N-N= 1.783112599565D+03 E-N=-1.264304994794D+04  KE= 3.719496506344D+03
 Symmetry A1   KE= 1.673554028862D+03
 Symmetry A2   KE= 1.818645490700D+02
 Symmetry B1   KE= 9.320389642057D+02
 Symmetry B2   KE= 9.320389642057D+02
 Orbital energies and kinetic energies (alpha):
                                 1                 2
   1         (E)--O         -101.252474        137.056331
   2         (E)--O         -101.252474        137.056331
   3         (B2)--O        -101.252453        137.059407
   4         (A1)--O        -101.252451        137.059531
   5         (E)--O         -101.252446        137.060337
   6         (E)--O         -101.252446        137.060337
   7         (A1)--O        -101.252442        137.060794
   8         (B2)--O        -101.252428        137.062819
   9         (E)--O           -9.184200         21.695829
  10         (E)--O           -9.184200         21.695829
  11         (B2)--O          -9.184148         21.703098
  12         (A1)--O          -9.184140         21.703695
  13         (E)--O           -9.184125         21.705718
  14         (E)--O           -9.184125         21.705718
  15         (A1)--O          -9.184117         21.706697
  16         (B2)--O          -9.184076         21.712179
  17         (B2)--O          -6.943635         20.527121
  18         (E)--O           -6.943587         20.535519
  19         (E)--O           -6.943587         20.535519
  20         (E)--O           -6.943579         20.536748
  21         (E)--O           -6.943579         20.536748
  22         (A1)--O          -6.943575         20.538661
  23         (A1)--O          -6.943565         20.540303
  24         (B2)--O          -6.943560         20.539507
  25         (A2)--O          -6.939738         20.542088
  26         (E)--O           -6.939725         20.545054
  27         (E)--O           -6.939725         20.545054
  28         (A2)--O          -6.939718         20.545540
  29         (E)--O           -6.939712         20.547186
  30         (E)--O           -6.939712         20.547186
  31         (B1)--O          -6.939697         20.550504
  32         (B1)--O          -6.939685         20.552241
  33         (B2)--O          -6.939058         20.542151
  34         (A1)--O          -6.939052         20.543196
  35         (E)--O           -6.939046         20.544000
  36         (E)--O           -6.939046         20.544000
  37         (A1)--O          -6.939026         20.548553
  38         (B2)--O          -6.939024         20.549032
  39         (E)--O           -6.939011         20.550891
  40         (E)--O           -6.939011         20.550891
  41         (A1)--O          -2.318162          1.161421
  42         (A1)--O          -2.303258          1.215064
  43         (A1)--O          -1.355485          1.710789
  44         (E)--O           -1.342552          1.802146
  45         (E)--O           -1.342552          1.802146
  46         (E)--O           -1.331176          1.843925
  47         (E)--O           -1.331176          1.843925
  48         (A1)--O          -1.275136          1.949216
  49         (A1)--O          -0.550337          2.929964
  50         (A1)--O          -0.543042          3.028308
  51         (B2)--O          -0.535155          3.118321
  52         (E)--O           -0.533729          3.111549
  53         (E)--O           -0.533729          3.111549
  54         (B2)--O          -0.528638          3.196720
  55         (E)--O           -0.527855          3.180216
  56         (E)--O           -0.527855          3.180216
  57         (A1)--O          -0.151335          1.961619
  58         (B2)--O          -0.150255          2.099933
  59         (B2)--O          -0.134278          2.198087
  60         (A1)--O          -0.133006          2.091644
  61         (B1)--O          -0.125625          1.758842
  62         (E)--O           -0.125520          1.832911
  63         (E)--O           -0.125520          1.832911
  64         (B1)--O          -0.109826          1.907137
  65         (A1)--O          -0.100731          1.857883
  66         (E)--O           -0.100612          2.174169
  67         (E)--O           -0.100612          2.174169
  68         (E)--O           -0.096169          2.069387
  69         (E)--O           -0.096169          2.069387
  70         (B2)--O          -0.064532          2.229494
  71         (A1)--O          -0.060302          2.169369
  72         (E)--O           -0.054578          2.287597
  73         (E)--O           -0.054578          2.287597
  74         (A1)--O          -0.050100          1.931775
  75         (E)--O           -0.048006          2.376694
  76         (E)--O           -0.048006          2.376694
  77         (E)--O           -0.043840          2.393779
  78         (E)--O           -0.043840          2.393779
  79         (A2)--O          -0.031331          2.504955
  80         (B2)--O          -0.029662          2.530662
  81         (A2)--O          -0.025936          2.570969
  82         (E)--O           -0.005901          2.169494
  83         (E)--O           -0.005901          2.169494
  84         (B1)--V           0.079296          2.162624
  85         (B1)--V           0.104619          2.257689
  86         (E)--V            0.157434          2.473665
  87         (E)--V            0.157434          2.473665
  88         (B2)--V           0.167753          2.652749
  89         (A1)--V           0.172407          2.155249
  90         (B2)--V           0.185514          2.719060
  91         (A1)--V           0.215663          0.257041
  92         (A1)--V           0.232302          0.508417
  93         (E)--V            0.252711          0.335376
  94         (E)--V            0.252711          0.335376
  95         (E)--V            0.253117          0.408593
  96         (E)--V            0.253117          0.408593
  97         (A1)--V           0.266959          1.389723
  98         (A1)--V           0.328568          0.770356
  99         (A1)--V           0.367236          1.551078
 100         (E)--V            0.431110          1.467652
 101         (E)--V            0.431110          1.467652
 102         (A1)--V           0.476898          0.933831
 103         (A1)--V           0.490772          1.827761
 104         (E)--V            0.531129          1.426800
 105         (E)--V            0.531129          1.426800
 106         (B1)--V           0.562517          1.587602
 107         (B2)--V           0.576083          2.230147
 108         (B2)--V           0.581905          2.072277
 109         (B1)--V           0.608974          1.556407
 110         (E)--V            0.609871          1.690066
 111         (E)--V            0.609871          1.690066
 112         (A1)--V           0.620028          1.910058
 113         (B1)--V           0.651193          2.733800
 114         (E)--V            0.662429          1.436186
 115         (E)--V            0.662429          1.436186
 116         (E)--V            0.682048          2.873355
 117         (E)--V            0.682048          2.873355
 118         (B2)--V           0.693521          2.445210
 119         (B1)--V           0.694504          2.892908
 120         (A1)--V           0.730333          2.797465
 121         (E)--V            0.734581          2.700042
 122         (E)--V            0.734581          2.700042
 123         (E)--V            0.738928          2.971675
 124         (E)--V            0.738928          2.971675
 125         (B2)--V           0.763248          2.455637
 126         (A1)--V           0.765347          2.991126
 127         (A1)--V           0.788141          2.690173
 128         (E)--V            0.793296          2.778296
 129         (E)--V            0.793296          2.778296
 130         (A2)--V           0.802423          2.768619
 131         (E)--V            0.816179          2.801293
 132         (E)--V            0.816179          2.801293
 133         (B2)--V           0.819434          2.664150
 134         (E)--V            0.854014          2.811225
 135         (E)--V            0.854014          2.811225
 136         (A2)--V           0.861171          2.832804
 137         (A1)--V           0.866963          2.835322
 138         (B2)--V           0.896722          2.769556
 139         (B2)--V           0.908024          2.960957
 140         (A1)--V           0.929701          2.697099
 141         (E)--V            0.933381          2.792707
 142         (E)--V            0.933381          2.792707
 143         (A1)--V           0.983742          2.792620
 144         (E)--V            1.061798          2.958206
 145         (E)--V            1.061798          2.958206
 146         (B2)--V           1.128022          2.636343
 147         (E)--V            1.131670          2.657290
 148         (E)--V            1.131670          2.657290
 149         (A2)--V           1.133086          2.633702
 150         (B2)--V           1.135406          2.642548
 151         (B1)--V           1.137526          2.626270
 152         (A2)--V           1.137910          2.626037
 153         (E)--V            1.139142          2.645616
 154         (E)--V            1.139142          2.645616
 155         (B1)--V           1.140147          2.629190
 156         (E)--V            1.141732          2.642421
 157         (E)--V            1.141732          2.642421
 158         (A1)--V           1.150899          2.653689
 159         (A2)--V           1.158397          2.710451
 160         (E)--V            1.159643          2.875448
 161         (E)--V            1.159643          2.875448
 162         (B2)--V           1.161148          2.814977
 163         (A1)--V           1.163187          2.699670
 164         (E)--V            1.164868          2.825485
 165         (E)--V            1.164868          2.825485
 166         (E)--V            1.165741          2.749247
 167         (E)--V            1.165741          2.749247
 168         (A2)--V           1.166628          2.774232
 169         (A1)--V           1.192582          2.787708
 170         (B2)--V           1.211822          2.899740
 171         (A1)--V           1.236077          2.730166
 172         (A1)--V           1.236334          2.674780
 173         (E)--V            1.256338          2.816507
 174         (E)--V            1.256338          2.816507
 175         (B2)--V           1.262683          3.848474
 176         (B1)--V           1.286083          2.700195
 177         (E)--V            1.374804          2.735869
 178         (E)--V            1.374804          2.735869
 179         (E)--V            1.382843          2.868235
 180         (E)--V            1.382843          2.868235
 181         (B2)--V           1.386789          2.844606
 182         (A1)--V           1.411784          2.979062
 183         (B1)--V           1.452907          2.846124
 184         (E)--V            1.550246          3.192137
 185         (E)--V            1.550246          3.192137
 186         (B2)--V           1.715717          3.400294
 187         (A1)--V           8.646697          2.526725
 188         (A1)--V          17.263490          4.243925
 Total kinetic energy from orbitals= 3.719496506344D+03
 1\1\GINC-LSQC07\FOpt\RB3LYP\GenECP\Cl8Mo2(2-)\LITAO\05-May-2015\0\\#op
 t b3lyp/genecp pop=full\\Title Card Required\\-2,1\Mo,0.,0.,-0.0169745
 749\Mo,0.,0.,2.2585391338\Cl,1.651959058,1.651959058,2.8239555963\Cl,1
 .651959058,-1.651959058,2.8239555963\Cl,-1.651959058,1.651959058,2.823
 9555963\Cl,-1.651959058,-1.651959058,2.8239555963\Cl,1.6519776565,1.65
 19776565,-0.5823072438\Cl,1.6519776565,-1.6519776565,-0.5823072438\Cl,
 -1.6519776565,1.6519776565,-0.5823072438\Cl,-1.6519776565,-1.651977656
 5,-0.5823072438\\Version=EM64L-G09RevA.01\State=1-A1\HF=-3817.0566583\
 RMSD=6.342e-09\RMSF=2.878e-05\Dipole=0.,0.,-0.0000091\Quadrupole=0.110
 6239,0.1106239,-0.2212478,0.,0.,0.\PG=C04V [C4(Mo1Mo1),2SGV(Cl4)]\\@


 I MET A TRAVELLER FROM AN ANTIQUE LAND
 WHO SAID... TWO VAST AND TRUNKLESS LEGS OF STONE
 STAND IN THE DESERT..... NEAR THEM,  ON THE SAND,
 HALF SUNK,  A SHATTERED VISAGE LIES,  WHOSE FROWN,
 AND WRINKLED LIP,  AND SNEER OF COLD COMMAND
 TELL THAT ITS SCULPTOR WELL THOSE PASSIONS READ
 WHICH YET SURVIVE,  STAMPED ON THESE LIFELESS THINGS
 THE HAND THAT MOCKED THEM,  AND THE HEART THAT FED-
 AND ON THE PEDESTAL THESE WORDS APPEAR 
 MY NAME IS OZYMANDIAS, KING OF KINGS--   
 LOOK ON MY WORKS YE MIGHTY AND DESPAIR. 
 NOTHING BESIDE REMAINS,  ROUND THE DECAY 
 OF THAT COLOSSAL WRECK,  BOUNDLESS AND BARE
 THE LONE AND LEVEL SANDS STRETCH FAR AWAY.
                                    SHELLEY
 Job cpu time:  0 days  0 hours  7 minutes 17.1 seconds.
 File lengths (MBytes):  RWF=     20 Int=      0 D2E=      0 Chk=      3 Scr=      1
 Normal termination of Gaussian 09 at Tue May  5 12:51:37 2015.
