 Entering Gaussian System, Link 0=g09
 Input=os2cl8-opt.gjf
 Output=os2cl8-opt.log
 Initial command:
 /usr/g09/l1.exe /scratch/litao/gaussian/Gau-5031.inp -scrdir=/scratch/litao/gaussian/
 Entering Link 1 = /usr/g09/l1.exe PID=      5032.
  
 Copyright (c) 1988,1990,1992,1993,1995,1998,2003,2009, Gaussian, Inc.
                  All Rights Reserved.
  
 This is part of the Gaussian(R) 09 program.  It is based on
 the Gaussian(R) 03 system (copyright 2003, Gaussian, Inc.),
 the Gaussian(R) 98 system (copyright 1998, Gaussian, Inc.),
 the Gaussian(R) 94 system (copyright 1995, Gaussian, Inc.),
 the Gaussian 92(TM) system (copyright 1992, Gaussian, Inc.),
 the Gaussian 90(TM) system (copyright 1990, Gaussian, Inc.),
 the Gaussian 88(TM) system (copyright 1988, Gaussian, Inc.),
 the Gaussian 86(TM) system (copyright 1986, Carnegie Mellon
 University), and the Gaussian 82(TM) system (copyright 1983,
 Carnegie Mellon University). Gaussian is a federally registered
 trademark of Gaussian, Inc.
  
 This software contains proprietary and confidential information,
 including trade secrets, belonging to Gaussian, Inc.
  
 This software is provided under written license and may be
 used, copied, transmitted, or stored only in accord with that
 written license.
  
 The following legend is applicable only to US Government
 contracts under FAR:
  
                    RESTRICTED RIGHTS LEGEND
  
 Use, reproduction and disclosure by the US Government is
 subject to restrictions as set forth in subparagraphs (a)
 and (c) of the Commercial Computer Software - Restricted
 Rights clause in FAR 52.227-19.
  
 Gaussian, Inc.
 340 Quinnipiac St., Bldg. 40, Wallingford CT 06492
  
  
 ---------------------------------------------------------------
 Warning -- This program may not be used in any manner that
 competes with the business of Gaussian, Inc. or will provide
 assistance to any competitor of Gaussian, Inc.  The licensee
 of this program is prohibited from giving any competitor of
 Gaussian, Inc. access to this program.  By using this program,
 the user acknowledges that Gaussian, Inc. is engaged in the
 business of creating and licensing software in the field of
 computational chemistry and represents and warrants to the
 licensee that it is not a competitor of Gaussian, Inc. and that
 it will not use this program in any manner prohibited above.
 ---------------------------------------------------------------
  

 Cite this work as:
 Gaussian 09, Revision A.01,
 M. J. Frisch, G. W. Trucks, H. B. Schlegel, G. E. Scuseria, 
 M. A. Robb, J. R. Cheeseman, G. Scalmani, V. Barone, B. Mennucci, 
 G. A. Petersson, H. Nakatsuji, M. Caricato, X. Li, H. P. Hratchian, 
 A. F. Izmaylov, J. Bloino, G. Zheng, J. L. Sonnenberg, M. Hada, 
 M. Ehara, K. Toyota, R. Fukuda, J. Hasegawa, M. Ishida, T. Nakajima, 
 Y. Honda, O. Kitao, H. Nakai, T. Vreven, J. A. Montgomery, Jr., 
 J. E. Peralta, F. Ogliaro, M. Bearpark, J. J. Heyd, E. Brothers, 
 K. N. Kudin, V. N. Staroverov, R. Kobayashi, J. Normand, 
 K. Raghavachari, A. Rendell, J. C. Burant, S. S. Iyengar, J. Tomasi, 
 M. Cossi, N. Rega, J. M. Millam, M. Klene, J. E. Knox, J. B. Cross, 
 V. Bakken, C. Adamo, J. Jaramillo, R. Gomperts, R. E. Stratmann, 
 O. Yazyev, A. J. Austin, R. Cammi, C. Pomelli, J. W. Ochterski, 
 R. L. Martin, K. Morokuma, V. G. Zakrzewski, G. A. Voth, 
 P. Salvador, J. J. Dannenberg, S. Dapprich, A. D. Daniels, 
 O. Farkas, J. B. Foresman, J. V. Ortiz, J. Cioslowski, 
 and D. J. Fox, Gaussian, Inc., Wallingford CT, 2009.
 
 ******************************************
 Gaussian 09:  EM64L-G09RevA.01  8-May-2009
                 5-May-2015 
 ******************************************
 %nprocshared=8
 Will use up to    8 processors via shared memory.
 %mem=8GB
 %chk=os2cl8-stable.chk
 --------------------------
 #opt b3lyp/genecp pop=full
 --------------------------
 1/14=-1,18=20,19=15,26=3,38=1/1,3;
 2/9=110,12=2,17=6,18=5,40=1/2;
 3/5=7,11=2,16=1,17=8,25=1,30=1,71=1,74=-5/1,2,3;
 4//1;
 5/5=2,38=5/2;
 6/7=3,28=1/1;
 7//1,2,3,16;
 1/14=-1,18=20,19=15/3(2);
 2/9=110/2;
 99//99;
 2/9=110/2;
 3/5=7,6=1,11=2,16=1,17=8,25=1,30=1,71=1,74=-5,82=7/1,2,3;
 4/5=5,16=3/1;
 5/5=2,38=5/2;
 7//1,2,3,16;
 1/14=-1,18=20,19=15/3(-5);
 2/9=110/2;
 6/7=3,19=2,28=1/1;
 99/9=1/99;
 -------------------
 Title Card Required
 -------------------
 Symbolic Z-matrix:
 Charge = -1 Multiplicity = 1
 Os                    0.        0.        0. 
 Os                    0.        0.        2.24016 
 Cl                    1.57      1.57      2.782 
 Cl                    1.57     -1.57      2.782 
 Cl                   -1.57      1.57      2.782 
 Cl                   -1.57     -1.57      2.782 
 Cl                    1.57      1.57     -0.54 
 Cl                    1.57     -1.57     -0.54 
 Cl                   -1.57      1.57     -0.54 
 Cl                   -1.57     -1.57     -0.54 
 

 GradGradGradGradGradGradGradGradGradGradGradGradGradGradGradGradGradGrad
 Berny optimization.
 Initialization pass.
                           ----------------------------
                           !    Initial Parameters    !
                           ! (Angstroms and Degrees)  !
 --------------------------                            --------------------------
 ! Name  Definition              Value          Derivative Info.                !
 --------------------------------------------------------------------------------
 ! R1    R(1,2)                  2.2402         estimate D2E/DX2                !
 ! R2    R(1,7)                  2.285          estimate D2E/DX2                !
 ! R3    R(1,8)                  2.285          estimate D2E/DX2                !
 ! R4    R(1,9)                  2.285          estimate D2E/DX2                !
 ! R5    R(1,10)                 2.285          estimate D2E/DX2                !
 ! R6    R(2,3)                  2.2855         estimate D2E/DX2                !
 ! R7    R(2,4)                  2.2855         estimate D2E/DX2                !
 ! R8    R(2,5)                  2.2855         estimate D2E/DX2                !
 ! R9    R(2,6)                  2.2855         estimate D2E/DX2                !
 ! A1    A(2,1,7)              103.6694         estimate D2E/DX2                !
 ! A2    A(2,1,8)              103.6694         estimate D2E/DX2                !
 ! A3    A(2,1,9)              103.6694         estimate D2E/DX2                !
 ! A4    A(2,1,10)             103.6694         estimate D2E/DX2                !
 ! A5    A(7,1,8)               86.7985         estimate D2E/DX2                !
 ! A6    A(7,1,9)               86.7985         estimate D2E/DX2                !
 ! A7    A(7,1,10)             152.6611         estimate D2E/DX2                !
 ! A8    A(8,1,9)              152.6611         estimate D2E/DX2                !
 ! A9    A(8,1,10)              86.7985         estimate D2E/DX2                !
 ! A10   A(9,1,10)              86.7985         estimate D2E/DX2                !
 ! A11   A(1,2,3)              103.7143         estimate D2E/DX2                !
 ! A12   A(1,2,4)              103.7143         estimate D2E/DX2                !
 ! A13   A(1,2,5)              103.7143         estimate D2E/DX2                !
 ! A14   A(1,2,6)              103.7143         estimate D2E/DX2                !
 ! A15   A(3,2,4)               86.7779         estimate D2E/DX2                !
 ! A16   A(3,2,5)               86.7779         estimate D2E/DX2                !
 ! A17   A(3,2,6)              152.5714         estimate D2E/DX2                !
 ! A18   A(4,2,5)              152.5714         estimate D2E/DX2                !
 ! A19   A(4,2,6)               86.7779         estimate D2E/DX2                !
 ! A20   A(5,2,6)               86.7779         estimate D2E/DX2                !
 ! D1    D(7,1,2,3)              0.0            estimate D2E/DX2                !
 ! D2    D(7,1,2,4)            -90.0            estimate D2E/DX2                !
 ! D3    D(7,1,2,5)             90.0            estimate D2E/DX2                !
 ! D4    D(7,1,2,6)            180.0            estimate D2E/DX2                !
 ! D5    D(8,1,2,3)             90.0            estimate D2E/DX2                !
 ! D6    D(8,1,2,4)              0.0            estimate D2E/DX2                !
 ! D7    D(8,1,2,5)           -180.0            estimate D2E/DX2                !
 ! D8    D(8,1,2,6)            -90.0            estimate D2E/DX2                !
 ! D9    D(9,1,2,3)            -90.0            estimate D2E/DX2                !
 ! D10   D(9,1,2,4)            180.0            estimate D2E/DX2                !
 ! D11   D(9,1,2,5)              0.0            estimate D2E/DX2                !
 ! D12   D(9,1,2,6)             90.0            estimate D2E/DX2                !
 ! D13   D(10,1,2,3)           180.0            estimate D2E/DX2                !
 ! D14   D(10,1,2,4)            90.0            estimate D2E/DX2                !
 ! D15   D(10,1,2,5)           -90.0            estimate D2E/DX2                !
 ! D16   D(10,1,2,6)             0.0            estimate D2E/DX2                !
 --------------------------------------------------------------------------------
 Trust Radius=3.00D-01 FncErr=1.00D-07 GrdErr=1.00D-06
 Number of steps in this run=  55 maximum allowed number of steps= 100.
 GradGradGradGradGradGradGradGradGradGradGradGradGradGradGradGradGradGrad

                          Input orientation:                          
 ---------------------------------------------------------------------
 Center     Atomic      Atomic             Coordinates (Angstroms)
 Number     Number       Type             X           Y           Z
 ---------------------------------------------------------------------
      1         76           0        0.000000    0.000000    0.000000
      2         76           0        0.000000    0.000000    2.240158
      3         17           0        1.570000    1.570000    2.782000
      4         17           0        1.570000   -1.570000    2.782000
      5         17           0       -1.570000    1.570000    2.782000
      6         17           0       -1.570000   -1.570000    2.782000
      7         17           0        1.570000    1.570000   -0.540000
      8         17           0        1.570000   -1.570000   -0.540000
      9         17           0       -1.570000    1.570000   -0.540000
     10         17           0       -1.570000   -1.570000   -0.540000
 ---------------------------------------------------------------------
                    Distance matrix (angstroms):
                    1          2          3          4          5
     1  Os   0.000000
     2  Os   2.240158   0.000000
     3  Cl   3.559399   2.285474   0.000000
     4  Cl   3.559399   2.285474   3.140000   0.000000
     5  Cl   3.559399   2.285474   3.140000   4.440631   0.000000
     6  Cl   3.559399   2.285474   4.440631   3.140000   3.140000
     7  Cl   2.285038   3.557960   3.322000   4.571136   4.571136
     8  Cl   2.285038   3.557960   4.571136   3.322000   5.545709
     9  Cl   2.285038   3.557960   4.571136   5.545709   3.322000
    10  Cl   2.285038   3.557960   5.545709   4.571136   4.571136
                    6          7          8          9         10
     6  Cl   0.000000
     7  Cl   5.545709   0.000000
     8  Cl   4.571136   3.140000   0.000000
     9  Cl   4.571136   3.140000   4.440631   0.000000
    10  Cl   3.322000   4.440631   3.140000   3.140000   0.000000
 Stoichiometry    Cl8Os2(1-)
 Framework group  C4V[C4(OsOs),2SGV(Cl4)]
 Deg. of freedom     5
 Full point group                 C4V     NOp   8
 Largest Abelian subgroup         C2V     NOp   4
 Largest concise Abelian subgroup C2V     NOp   4
                         Standard orientation:                         
 ---------------------------------------------------------------------
 Center     Atomic      Atomic             Coordinates (Angstroms)
 Number     Number       Type             X           Y           Z
 ---------------------------------------------------------------------
      1         76           0        0.000000    0.000000    1.120514
      2         76           0        0.000000    0.000000   -1.119644
      3         17           0        0.000000    2.220315   -1.661486
      4         17           0       -2.220315    0.000000   -1.661486
      5         17           0        2.220315    0.000000   -1.661486
      6         17           0        0.000000   -2.220315   -1.661486
      7         17           0        0.000000    2.220315    1.660514
      8         17           0       -2.220315    0.000000    1.660514
      9         17           0        2.220315    0.000000    1.660514
     10         17           0        0.000000   -2.220315    1.660514
 ---------------------------------------------------------------------
 Rotational constants (GHZ):      0.3664515      0.2607730      0.2607730
 General basis read from cards:  (5D, 7F)
 ======================================================================================================
                                       Pseudopotential Parameters
 ======================================================================================================
  Center     Atomic      Valence      Angular      Power
  Number     Number     Electrons     Momentum     of R      Exponent        Coefficient   SO-Coeffient
 ======================================================================================================
    1         76           16
                                      G and up 
                                                     1      848.8743292       -0.15372930    0.00000000
                                                     2      400.4640004    -1642.96955420    0.00000000
                                                     2       58.0359466     -336.79545670    0.00000000
                                                     2       12.0454682      -94.98390270    0.00000000
                                                     2        3.4442512      -10.35162180    0.00000000
                                      S - G
                                                     0      216.2672249        3.15372930    0.00000000
                                                     1      343.8582098       25.99482330    0.00000000
                                                     2      136.0523606      859.48657560    0.00000000
                                                     2       35.0389457      380.13765040    0.00000000
                                                     2        4.4724452      242.70106660    0.00000000
                                                     2        3.7675119     -125.17531070    0.00000000
                                      P - G
                                                     0      326.0600134        2.15372930    0.00000000
                                                     1       95.6330206       62.86842750    0.00000000
                                                     2       32.5261043      293.13229870    0.00000000
                                                     2        3.7699730      264.46483880    0.00000000
                                                     2        3.3895859     -172.64203140    0.00000000
                                      D - G
                                                     0      131.0319929        3.15372930    0.00000000
                                                     1       89.2464903       45.33992000    0.00000000
                                                     2       46.3976980      335.85750320    0.00000000
                                                     2       14.1866053      166.30374570    0.00000000
                                                     2        3.7668843       49.02378250    0.00000000
                                      F - G
                                                     0      134.7368148        3.95579820    0.00000000
                                                     1       73.8771318       51.95219570    0.00000000
                                                     2       38.1030425      314.25558660    0.00000000
                                                     2       10.5337695      147.18398940    0.00000000
                                                     2        2.3338246       13.96229470    0.00000000
    2         76           16
                                      G and up 
                                                     1      848.8743292       -0.15372930    0.00000000
                                                     2      400.4640004    -1642.96955420    0.00000000
                                                     2       58.0359466     -336.79545670    0.00000000
                                                     2       12.0454682      -94.98390270    0.00000000
                                                     2        3.4442512      -10.35162180    0.00000000
                                      S - G
                                                     0      216.2672249        3.15372930    0.00000000
                                                     1      343.8582098       25.99482330    0.00000000
                                                     2      136.0523606      859.48657560    0.00000000
                                                     2       35.0389457      380.13765040    0.00000000
                                                     2        4.4724452      242.70106660    0.00000000
                                                     2        3.7675119     -125.17531070    0.00000000
                                      P - G
                                                     0      326.0600134        2.15372930    0.00000000
                                                     1       95.6330206       62.86842750    0.00000000
                                                     2       32.5261043      293.13229870    0.00000000
                                                     2        3.7699730      264.46483880    0.00000000
                                                     2        3.3895859     -172.64203140    0.00000000
                                      D - G
                                                     0      131.0319929        3.15372930    0.00000000
                                                     1       89.2464903       45.33992000    0.00000000
                                                     2       46.3976980      335.85750320    0.00000000
                                                     2       14.1866053      166.30374570    0.00000000
                                                     2        3.7668843       49.02378250    0.00000000
                                      F - G
                                                     0      134.7368148        3.95579820    0.00000000
                                                     1       73.8771318       51.95219570    0.00000000
                                                     2       38.1030425      314.25558660    0.00000000
                                                     2       10.5337695      147.18398940    0.00000000
                                                     2        2.3338246       13.96229470    0.00000000
    3         17
                                   No pseudopotential on this center.
    4         17
                                   No pseudopotential on this center.
    5         17
                                   No pseudopotential on this center.
    6         17
                                   No pseudopotential on this center.
    7         17
                                   No pseudopotential on this center.
    8         17
                                   No pseudopotential on this center.
    9         17
                                   No pseudopotential on this center.
   10         17
                                   No pseudopotential on this center.
 ======================================================================================================
 The combination of multiplicity 1 and   169 electrons is impossible.
 Error termination via Lnk1e in /usr/g09/l301.exe at Tue May  5 13:05:48 2015.
 Job cpu time:  0 days  0 hours  0 minutes  0.5 seconds.
 File lengths (MBytes):  RWF=      5 Int=      0 D2E=      0 Chk=      1 Scr=      1
