 Entering Gaussian System, Link 0=g09
 Input=re2cl8-stable.gjf
 Output=re2cl8-stable.log
 Initial command:
 /usr/g09/l1.exe /scratch/litao/gaussian/Gau-2404.inp -scrdir=/scratch/litao/gaussian/
 Entering Link 1 = /usr/g09/l1.exe PID=      2405.
  
 Copyright (c) 1988,1990,1992,1993,1995,1998,2003,2009, Gaussian, Inc.
                  All Rights Reserved.
  
 This is part of the Gaussian(R) 09 program.  It is based on
 the Gaussian(R) 03 system (copyright 2003, Gaussian, Inc.),
 the Gaussian(R) 98 system (copyright 1998, Gaussian, Inc.),
 the Gaussian(R) 94 system (copyright 1995, Gaussian, Inc.),
 the Gaussian 92(TM) system (copyright 1992, Gaussian, Inc.),
 the Gaussian 90(TM) system (copyright 1990, Gaussian, Inc.),
 the Gaussian 88(TM) system (copyright 1988, Gaussian, Inc.),
 the Gaussian 86(TM) system (copyright 1986, Carnegie Mellon
 University), and the Gaussian 82(TM) system (copyright 1983,
 Carnegie Mellon University). Gaussian is a federally registered
 trademark of Gaussian, Inc.
  
 This software contains proprietary and confidential information,
 including trade secrets, belonging to Gaussian, Inc.
  
 This software is provided under written license and may be
 used, copied, transmitted, or stored only in accord with that
 written license.
  
 The following legend is applicable only to US Government
 contracts under FAR:
  
                    RESTRICTED RIGHTS LEGEND
  
 Use, reproduction and disclosure by the US Government is
 subject to restrictions as set forth in subparagraphs (a)
 and (c) of the Commercial Computer Software - Restricted
 Rights clause in FAR 52.227-19.
  
 Gaussian, Inc.
 340 Quinnipiac St., Bldg. 40, Wallingford CT 06492
  
  
 ---------------------------------------------------------------
 Warning -- This program may not be used in any manner that
 competes with the business of Gaussian, Inc. or will provide
 assistance to any competitor of Gaussian, Inc.  The licensee
 of this program is prohibited from giving any competitor of
 Gaussian, Inc. access to this program.  By using this program,
 the user acknowledges that Gaussian, Inc. is engaged in the
 business of creating and licensing software in the field of
 computational chemistry and represents and warrants to the
 licensee that it is not a competitor of Gaussian, Inc. and that
 it will not use this program in any manner prohibited above.
 ---------------------------------------------------------------
  

 Cite this work as:
 Gaussian 09, Revision A.01,
 M. J. Frisch, G. W. Trucks, H. B. Schlegel, G. E. Scuseria, 
 M. A. Robb, J. R. Cheeseman, G. Scalmani, V. Barone, B. Mennucci, 
 G. A. Petersson, H. Nakatsuji, M. Caricato, X. Li, H. P. Hratchian, 
 A. F. Izmaylov, J. Bloino, G. Zheng, J. L. Sonnenberg, M. Hada, 
 M. Ehara, K. Toyota, R. Fukuda, J. Hasegawa, M. Ishida, T. Nakajima, 
 Y. Honda, O. Kitao, H. Nakai, T. Vreven, J. A. Montgomery, Jr., 
 J. E. Peralta, F. Ogliaro, M. Bearpark, J. J. Heyd, E. Brothers, 
 K. N. Kudin, V. N. Staroverov, R. Kobayashi, J. Normand, 
 K. Raghavachari, A. Rendell, J. C. Burant, S. S. Iyengar, J. Tomasi, 
 M. Cossi, N. Rega, J. M. Millam, M. Klene, J. E. Knox, J. B. Cross, 
 V. Bakken, C. Adamo, J. Jaramillo, R. Gomperts, R. E. Stratmann, 
 O. Yazyev, A. J. Austin, R. Cammi, C. Pomelli, J. W. Ochterski, 
 R. L. Martin, K. Morokuma, V. G. Zakrzewski, G. A. Voth, 
 P. Salvador, J. J. Dannenberg, S. Dapprich, A. D. Daniels, 
 O. Farkas, J. B. Foresman, J. V. Ortiz, J. Cioslowski, 
 and D. J. Fox, Gaussian, Inc., Wallingford CT, 2009.
 
 ******************************************
 Gaussian 09:  EM64L-G09RevA.01  8-May-2009
                 5-May-2015 
 ******************************************
 %nprocshared=8
 Will use up to    8 processors via shared memory.
 %mem=8GB
 %chk=re2cl8-stable.chk
 ------------------------
 #p b3lyp/genecp pop=full
 ------------------------
 1/38=1/1;
 2/12=2,17=6,18=5,40=1/2;
 3/5=7,11=2,16=1,17=8,25=1,30=1,74=-5/1,2,3;
 4//1;
 5/5=2,38=5/2;
 6/7=3,28=1/1;
 99/5=1,9=1/99;
 Leave Link    1 at Tue May  5 12:47:12 2015, MaxMem= 1073741824 cpu:       0.1
 (Enter /usr/g09/l101.exe)
 -------------------
 Title Card Required
 -------------------
 Symbolic Z-matrix:
 Charge = -2 Multiplicity = 1
 Re                    0.        0.        0. 
 Re                    0.        0.        2.24016 
 Cl                    1.57      1.57      2.782 
 Cl                    1.57     -1.57      2.782 
 Cl                   -1.57      1.57      2.782 
 Cl                   -1.57     -1.57      2.782 
 Cl                    1.57      1.57     -0.54 
 Cl                    1.57     -1.57     -0.54 
 Cl                   -1.57      1.57     -0.54 
 Cl                   -1.57     -1.57     -0.54 
 
 NAtoms=     10 NQM=     10 NQMF=      0 NMic=      0 NMicF=      0 NTot=     10.
                    Isotopes and Nuclear Properties:
 (Nuclear quadrupole moments (NQMom) in fm**2, nuclear magnetic moments (NMagM)
  in nuclear magnetons)

  Atom         1           2           3           4           5           6           7           8           9          10
 IAtWgt=         187         187          35          35          35          35          35          35          35          35
 AtmWgt= 186.9560000 186.9560000  34.9688527  34.9688527  34.9688527  34.9688527  34.9688527  34.9688527  34.9688527  34.9688527
 NucSpn=           5           5           3           3           3           3           3           3           3           3
 AtZEff=   0.0000000   0.0000000   0.0000000   0.0000000   0.0000000   0.0000000   0.0000000   0.0000000   0.0000000   0.0000000
 NQMom=  207.0000000 207.0000000  -8.1650000  -8.1650000  -8.1650000  -8.1650000  -8.1650000  -8.1650000  -8.1650000  -8.1650000
 NMagM=    3.2197000   3.2197000   0.8218740   0.8218740   0.8218740   0.8218740   0.8218740   0.8218740   0.8218740   0.8218740
 Leave Link  101 at Tue May  5 12:47:12 2015, MaxMem= 1073741824 cpu:       0.1
 (Enter /usr/g09/l202.exe)
                          Input orientation:                          
 ---------------------------------------------------------------------
 Center     Atomic      Atomic             Coordinates (Angstroms)
 Number     Number       Type             X           Y           Z
 ---------------------------------------------------------------------
      1         75           0        0.000000    0.000000    0.000000
      2         75           0        0.000000    0.000000    2.240158
      3         17           0        1.570000    1.570000    2.782000
      4         17           0        1.570000   -1.570000    2.782000
      5         17           0       -1.570000    1.570000    2.782000
      6         17           0       -1.570000   -1.570000    2.782000
      7         17           0        1.570000    1.570000   -0.540000
      8         17           0        1.570000   -1.570000   -0.540000
      9         17           0       -1.570000    1.570000   -0.540000
     10         17           0       -1.570000   -1.570000   -0.540000
 ---------------------------------------------------------------------
                    Distance matrix (angstroms):
                    1          2          3          4          5
     1  Re   0.000000
     2  Re   2.240158   0.000000
     3  Cl   3.559399   2.285474   0.000000
     4  Cl   3.559399   2.285474   3.140000   0.000000
     5  Cl   3.559399   2.285474   3.140000   4.440631   0.000000
     6  Cl   3.559399   2.285474   4.440631   3.140000   3.140000
     7  Cl   2.285038   3.557960   3.322000   4.571136   4.571136
     8  Cl   2.285038   3.557960   4.571136   3.322000   5.545709
     9  Cl   2.285038   3.557960   4.571136   5.545709   3.322000
    10  Cl   2.285038   3.557960   5.545709   4.571136   4.571136
                    6          7          8          9         10
     6  Cl   0.000000
     7  Cl   5.545709   0.000000
     8  Cl   4.571136   3.140000   0.000000
     9  Cl   4.571136   3.140000   4.440631   0.000000
    10  Cl   3.322000   4.440631   3.140000   3.140000   0.000000
 Stoichiometry    Cl8Re2(2-)
 Framework group  C4V[C4(ReRe),2SGV(Cl4)]
 Deg. of freedom     5
 Full point group                 C4V     NOp   8
 Largest Abelian subgroup         C2V     NOp   4
 Largest concise Abelian subgroup C2V     NOp   4
                         Standard orientation:                         
 ---------------------------------------------------------------------
 Center     Atomic      Atomic             Coordinates (Angstroms)
 Number     Number       Type             X           Y           Z
 ---------------------------------------------------------------------
      1         75           0        0.000000    0.000000    1.120517
      2         75           0        0.000000    0.000000   -1.119641
      3         17           0        0.000000    2.220315   -1.661483
      4         17           0       -2.220315    0.000000   -1.661483
      5         17           0        2.220315    0.000000   -1.661483
      6         17           0        0.000000   -2.220315   -1.661483
      7         17           0        0.000000    2.220315    1.660517
      8         17           0       -2.220315    0.000000    1.660517
      9         17           0        2.220315    0.000000    1.660517
     10         17           0        0.000000   -2.220315    1.660517
 ---------------------------------------------------------------------
 Rotational constants (GHZ):      0.3664515      0.2617907      0.2617907
 Leave Link  202 at Tue May  5 12:47:12 2015, MaxMem= 1073741824 cpu:       0.0
 (Enter /usr/g09/l301.exe)
 General basis read from cards:  (5D, 7F)
 Centers:   3  4  5  6  7  8  9 10
 6-31g**
 ****
 Centers:   1  2
 LanL2DZ
 ****
 Ernie: Thresh=  0.10000D-02 Tol=  0.10000D-05 Strict=F.
 Ernie:  2 primitive shells out of 170 were deleted.
 ======================================================================================================
                                       Pseudopotential Parameters
 ======================================================================================================
  Center     Atomic      Valence      Angular      Power
  Number     Number     Electrons     Momentum     of R      Exponent        Coefficient   SO-Coeffient
 ======================================================================================================
    1         75           15
                                      G and up 
                                                     1     1833.8143836       -0.14971040    0.00000000
                                                     2      414.0589456    -1669.25557810    0.00000000
                                                     2       59.0349540     -346.66611290    0.00000000
                                                     2       11.9177094      -96.66848920    0.00000000
                                                     2        3.6531764      -11.07385670    0.00000000
                                                     2        1.2764184       -0.57985520    0.00000000
                                      S - G
                                                     0      247.0023085        3.14971040    0.00000000
                                                     1      631.7195767       45.29699690    0.00000000
                                                     2      249.2800441     1116.42795850    0.00000000
                                                     2       84.2947315      793.64190650    0.00000000
                                                     2       23.0407912      318.20991930    0.00000000
                                                     2        4.2997111      586.31050250    0.00000000
                                                     2        4.0974390     -475.69041640    0.00000000
                                      P - G
                                                     0      193.6897726        2.14971040    0.00000000
                                                     1       56.9308394       64.22957360    0.00000000
                                                     2       18.7227602      218.85046070    0.00000000
                                                     2        3.7340020      344.41891680    0.00000000
                                                     2        3.5127483     -260.47272670    0.00000000
                                      D - G
                                                     0      126.2340824        3.14971040    0.00000000
                                                     1       80.7090826       46.57148680    0.00000000
                                                     2       42.5529714      304.38345950    0.00000000
                                                     2       13.4074494      157.15896520    0.00000000
                                                     2        3.6904228       48.57012110    0.00000000
                                      F - G
                                                     0      112.7786459        3.95696100    0.00000000
                                                     1       56.7815968       52.35867810    0.00000000
                                                     2       28.5831966      236.03408240    0.00000000
                                                     2        8.5734158      116.57872660    0.00000000
                                                     2        2.0892721       11.10505300    0.00000000
    2         75           15
                                      G and up 
                                                     1     1833.8143836       -0.14971040    0.00000000
                                                     2      414.0589456    -1669.25557810    0.00000000
                                                     2       59.0349540     -346.66611290    0.00000000
                                                     2       11.9177094      -96.66848920    0.00000000
                                                     2        3.6531764      -11.07385670    0.00000000
                                                     2        1.2764184       -0.57985520    0.00000000
                                      S - G
                                                     0      247.0023085        3.14971040    0.00000000
                                                     1      631.7195767       45.29699690    0.00000000
                                                     2      249.2800441     1116.42795850    0.00000000
                                                     2       84.2947315      793.64190650    0.00000000
                                                     2       23.0407912      318.20991930    0.00000000
                                                     2        4.2997111      586.31050250    0.00000000
                                                     2        4.0974390     -475.69041640    0.00000000
                                      P - G
                                                     0      193.6897726        2.14971040    0.00000000
                                                     1       56.9308394       64.22957360    0.00000000
                                                     2       18.7227602      218.85046070    0.00000000
                                                     2        3.7340020      344.41891680    0.00000000
                                                     2        3.5127483     -260.47272670    0.00000000
                                      D - G
                                                     0      126.2340824        3.14971040    0.00000000
                                                     1       80.7090826       46.57148680    0.00000000
                                                     2       42.5529714      304.38345950    0.00000000
                                                     2       13.4074494      157.15896520    0.00000000
                                                     2        3.6904228       48.57012110    0.00000000
                                      F - G
                                                     0      112.7786459        3.95696100    0.00000000
                                                     1       56.7815968       52.35867810    0.00000000
                                                     2       28.5831966      236.03408240    0.00000000
                                                     2        8.5734158      116.57872660    0.00000000
                                                     2        2.0892721       11.10505300    0.00000000
    3         17
                                   No pseudopotential on this center.
    4         17
                                   No pseudopotential on this center.
    5         17
                                   No pseudopotential on this center.
    6         17
                                   No pseudopotential on this center.
    7         17
                                   No pseudopotential on this center.
    8         17
                                   No pseudopotential on this center.
    9         17
                                   No pseudopotential on this center.
   10         17
                                   No pseudopotential on this center.
 ======================================================================================================
 There are    72 symmetry adapted basis functions of A1  symmetry.
 There are    24 symmetry adapted basis functions of A2  symmetry.
 There are    46 symmetry adapted basis functions of B1  symmetry.
 There are    46 symmetry adapted basis functions of B2  symmetry.
 Integral buffers will be    131072 words long.
 Raffenetti 2 integral format.
 Two-electron integral symmetry is turned on.
   188 basis functions,   502 primitive gaussians,   200 cartesian basis functions
    84 alpha electrons       84 beta electrons
       nuclear repulsion energy      1918.3778031440 Hartrees.
 IExCor=  402 DFT=T Ex+Corr=B3LYP ExCW=0 ScaHFX=  0.200000
 ScaDFX=  0.800000  0.720000  1.000000  0.810000 ScalE2=  1.000000  1.000000
 IRadAn=      0 IRanWt=     -1 IRanGd=            0 ICorTp=0
 NAtoms=   10 NActive=   10 NUniq=    4 SFac= 3.00D+00 NAtFMM=   80 NAOKFM=F Big=F
 Leave Link  301 at Tue May  5 12:47:12 2015, MaxMem= 1073741824 cpu:       0.2
 (Enter /usr/g09/l302.exe)
 NPDir=0 NMtPBC=     1 NCelOv=     1 NCel=       1 NClECP=     1 NCelD=      1
         NCelK=      1 NCelE2=     1 NClLst=     1 CellRange=     0.0.
 One-electron integrals computed using PRISM.
 One-electron integral symmetry used in STVInt
   8 Symmetry operations used in ECPInt.
 ECPInt:  NShTT=    1596 NPrTT=   14482 LenC2=    1481 LenP2D=    8766.
 LDataN:  DoStor=T MaxTD1= 6 Len=  172
 NBasis=   188 RedAO= T  NBF=    72    24    46    46
 NBsUse=   188 1.00D-06 NBFU=    72    24    46    46
 Precomputing XC quadrature grid using
 IXCGrd= 2 IRadAn=           0 IRanWt=          -1 IRanGd=           0 AccXCQ= 1.00D-10.
 Defaulting to unpruned grid for atomic number  75.
 NRdTot=     628 NPtTot=       99180 NUsed=      103719 NTot=      103751
 NSgBfM=   198   198   198   198   198 NAtAll=    10    10.
 Leave Link  302 at Tue May  5 12:47:12 2015, MaxMem= 1073741824 cpu:       2.5
 (Enter /usr/g09/l303.exe)
 DipDrv:  MaxL=1.
 Leave Link  303 at Tue May  5 12:47:12 2015, MaxMem= 1073741824 cpu:       0.1
 (Enter /usr/g09/l401.exe)
 Harris functional with IExCor=  402 diagonalized for initial guess.
 ExpMin= 2.80D-02 ExpMax= 2.52D+04 ExpMxC= 3.78D+03 IAcc=3 IRadAn=         0 AccDes= 0.00D+00
 HarFok:  IExCor=  402 AccDes= 0.00D+00 IRadAn=         0 IDoV= 1
 ScaDFX=  1.000000  1.000000  1.000000  1.000000
 Defaulting to unpruned grid for atomic number  75.
 Defaulting to unpruned grid for atomic number  75.
 Defaulting to unpruned grid for atomic number  75.
 Defaulting to unpruned grid for atomic number  75.
 Defaulting to unpruned grid for atomic number  75.
 Defaulting to unpruned grid for atomic number  75.
 Defaulting to unpruned grid for atomic number  75.
 Defaulting to unpruned grid for atomic number  75.
 FoFCou: FMM=F IPFlag=           0 FMFlag=      100000 FMFlg1=           0
         NFxFlg=           0 DoJE=T BraDBF=F KetDBF=T FulRan=T
         Omega=  0.000000  0.000000  1.000000  0.000000  0.000000 ICntrl=     500 IOpCl=  0
         NMat0=    1 NMatS0=    1 NMatT0=    0 NMatD0=    1 NMtDS0=    0 NMtDT0=    0
         I1Cent=           4 NGrid=           0.
 Petite list used in FoFCou.
 Harris En= -3843.69435775024    
 Initial guess orbital symmetries:
       Occupied  (E) (E) (B2) (A1) (E) (E) (A1) (B2) (E) (E) (B2)
                 (A1) (E) (E) (A1) (B2) (B2) (E) (E) (A1) (A1)
                 (E) (E) (B2) (B2) (E) (E) (A2) (A1) (E) (E) (A2)
                 (E) (E) (A1) (B2) (B1) (E) (E) (B1) (A1) (A1)
                 (A1) (E) (E) (E) (E) (A1) (A1) (A1) (B2) (E) (E)
                 (B2) (E) (E) (A1) (A1) (B1) (B2) (B1) (E) (E)
                 (B2) (A1) (E) (E) (E) (E) (B2) (A1) (E) (E) (E)
                 (E) (E) (E) (B2) (A2) (A2) (A1) (E) (E) (B1)
       Virtual   (B1) (A1) (B2) (A1) (E) (E) (B2) (A1) (E) (E)
                 (A1) (E) (E) (A1) (A1) (E) (E) (E) (E) (A1) (B2)
                 (B1) (B2) (A1) (B1) (E) (E) (B2) (E) (E) (B1)
                 (A1) (E) (E) (A1) (E) (E) (B1) (A2) (E) (E) (E)
                 (E) (A1) (B2) (E) (E) (A2) (A1) (B2) (A1) (E)
                 (E) (E) (E) (B2) (B2) (A1) (E) (E) (B2) (A2) (B1)
                 (A2) (E) (E) (B1) (B2) (E) (E) (E) (E) (A1) (E)
                 (E) (B2) (A2) (A1) (E) (E) (A2) (E) (E) (A1) (A1)
                 (B2) (E) (E) (B1) (A1) (B2) (B2) (E) (E) (E) (E)
                 (A1) (B1) (A1) (E) (E) (B2) (A1) (A1)
 The electronic state of the initial guess is 1-A1.
 Leave Link  401 at Tue May  5 12:47:13 2015, MaxMem= 1073741824 cpu:       1.7
 (Enter /usr/g09/l502.exe)
 Closed shell SCF:
 Requested convergence on RMS density matrix=1.00D-08 within 128 cycles.
 Requested convergence on MAX density matrix=1.00D-06.
 Requested convergence on             energy=1.00D-06.
 No special actions if energy rises.
 Using DIIS extrapolation, IDIIS=  1040.
 Integral symmetry usage will be decided dynamically.
       103616 words used for storage of precomputed grid.
 Keep R1 ints in memory in canonical form, NReq=206321046.
 IEnd=      245782 IEndB=      245782 NGot=  1073741824 MDV=   871537805
 LenX=   871537805 LenY=   871497364
 Symmetry not used in FoFDir.
 MinBra= 0 MaxBra= 2 Meth= 1.
 IRaf=       0 NMat=   1 IRICut=       1 DoRegI=T DoRafI=F ISym2E= 0 JSym2E=0.

 Cycle   1  Pass 1  IDiag  1:
 Defaulting to unpruned grid for atomic number  75.
 Defaulting to unpruned grid for atomic number  75.
 Defaulting to unpruned grid for atomic number  75.
 Defaulting to unpruned grid for atomic number  75.
 Defaulting to unpruned grid for atomic number  75.
 Defaulting to unpruned grid for atomic number  75.
 Defaulting to unpruned grid for atomic number  75.
 Defaulting to unpruned grid for atomic number  75.
 E= -3839.23017627314    
 DIIS: error= 9.28D-02 at cycle   1 NSaved=   1.
 NSaved= 1 IEnMin= 1 EnMin= -3839.23017627314     IErMin= 1 ErrMin= 9.28D-02
 ErrMax= 9.28D-02 EMaxC= 1.00D-01 BMatC= 9.65D-01 BMatP= 9.65D-01
 IDIUse=3 WtCom= 7.22D-02 WtEn= 9.28D-01
 Coeff-Com:  0.100D+01
 Coeff-En:   0.100D+01
 Coeff:      0.100D+01
 Gap=     0.007 Goal=   None    Shift=    0.000
 GapD=    0.007 DampG=0.250 DampE=0.250 DampFc=0.1250 IDamp=-1.
 Damping current iteration by 1.25D-01
 RMSDP=2.91D-02 MaxDP=1.10D+00              OVMax= 8.32D-01

 Cycle   2  Pass 1  IDiag  1:
 E= -3839.47263477706     Delta-E=       -0.242458503924 Rises=F Damp=T
 DIIS: error= 5.65D-02 at cycle   2 NSaved=   2.
 NSaved= 2 IEnMin= 2 EnMin= -3839.47263477706     IErMin= 2 ErrMin= 5.65D-02
 ErrMax= 5.65D-02 EMaxC= 1.00D-01 BMatC= 3.29D-01 BMatP= 9.65D-01
 IDIUse=3 WtCom= 4.35D-01 WtEn= 5.65D-01
 Coeff-Com: -0.966D+00 0.197D+01
 Coeff-En:   0.000D+00 0.100D+01
 Coeff:     -0.420D+00 0.142D+01
 Gap=    -0.067 Goal=   None    Shift=    0.000
 RMSDP=1.07D-02 MaxDP=4.42D-01 DE=-2.42D-01 OVMax= 9.88D-01

 Cycle   3  Pass 1  IDiag  1:
 E= -3840.12063090390     Delta-E=       -0.647996126838 Rises=F Damp=F
 DIIS: error= 8.61D-03 at cycle   3 NSaved=   3.
 NSaved= 3 IEnMin= 3 EnMin= -3840.12063090390     IErMin= 3 ErrMin= 8.61D-03
 ErrMax= 8.61D-03 EMaxC= 1.00D-01 BMatC= 1.19D-02 BMatP= 3.29D-01
 IDIUse=3 WtCom= 9.14D-01 WtEn= 8.61D-02
 Coeff-Com: -0.296D-01 0.183D+00 0.847D+00
 Coeff-En:   0.000D+00 0.000D+00 0.100D+01
 Coeff:     -0.270D-01 0.167D+00 0.860D+00
 Gap=     0.062 Goal=   None    Shift=    0.000
 RMSDP=1.77D-03 MaxDP=4.82D-02 DE=-6.48D-01 OVMax= 3.73D-02

 Cycle   4  Pass 1  IDiag  1:
 E= -3840.12705247076     Delta-E=       -0.006421566861 Rises=F Damp=F
 DIIS: error= 9.20D-03 at cycle   4 NSaved=   4.
 NSaved= 4 IEnMin= 4 EnMin= -3840.12705247076     IErMin= 3 ErrMin= 8.61D-03
 ErrMax= 9.20D-03 EMaxC= 1.00D-01 BMatC= 6.34D-03 BMatP= 1.19D-02
 IDIUse=3 WtCom= 9.08D-01 WtEn= 9.20D-02
 Coeff-Com: -0.863D-01 0.129D+00 0.337D+00 0.620D+00
 Coeff-En:   0.000D+00 0.000D+00 0.347D+00 0.653D+00
 Coeff:     -0.783D-01 0.117D+00 0.338D+00 0.623D+00
 Gap=     0.060 Goal=   None    Shift=    0.000
 RMSDP=5.37D-04 MaxDP=2.70D-02 DE=-6.42D-03 OVMax= 2.68D-02

 Cycle   5  Pass 1  IDiag  1:
 E= -3840.13287107790     Delta-E=       -0.005818607140 Rises=F Damp=F
 DIIS: error= 6.93D-03 at cycle   5 NSaved=   5.
 NSaved= 5 IEnMin= 5 EnMin= -3840.13287107790     IErMin= 5 ErrMin= 6.93D-03
 ErrMax= 6.93D-03 EMaxC= 1.00D-01 BMatC= 2.04D-03 BMatP= 6.34D-03
 IDIUse=3 WtCom= 9.31D-01 WtEn= 6.93D-02
 Coeff-Com: -0.789D-01 0.115D+00 0.283D+00 0.531D+00 0.150D+00
 Coeff-En:   0.000D+00 0.000D+00 0.000D+00 0.000D+00 0.100D+01
 Coeff:     -0.735D-01 0.107D+00 0.264D+00 0.494D+00 0.209D+00
 Gap=     0.060 Goal=   None    Shift=    0.000
 RMSDP=4.75D-04 MaxDP=3.27D-02 DE=-5.82D-03 OVMax= 5.44D-02

 Cycle   6  Pass 1  IDiag  1:
 E= -3840.13106165385     Delta-E=        0.001809424047 Rises=F Damp=F
 DIIS: error= 1.03D-02 at cycle   6 NSaved=   6.
 NSaved= 6 IEnMin= 5 EnMin= -3840.13287107790     IErMin= 5 ErrMin= 6.93D-03
 ErrMax= 1.03D-02 EMaxC= 1.00D-01 BMatC= 4.11D-03 BMatP= 2.04D-03
 IDIUse=2 WtCom= 0.00D+00 WtEn= 1.00D+00
 Coeff-En:   0.000D+00 0.000D+00 0.000D+00 0.000D+00 0.607D+00 0.393D+00
 Coeff:      0.000D+00 0.000D+00 0.000D+00 0.000D+00 0.607D+00 0.393D+00
 Gap=     0.059 Goal=   None    Shift=    0.000
 RMSDP=5.14D-04 MaxDP=2.74D-02 DE= 1.81D-03 OVMax= 2.77D-02

 Cycle   7  Pass 1  IDiag  1:
 E= -3840.13178967354     Delta-E=       -0.000728019685 Rises=F Damp=F
 DIIS: error= 6.43D-03 at cycle   7 NSaved=   7.
 NSaved= 7 IEnMin= 5 EnMin= -3840.13287107790     IErMin= 7 ErrMin= 6.43D-03
 ErrMax= 6.43D-03 EMaxC= 1.00D-01 BMatC= 2.59D-03 BMatP= 2.04D-03
 IDIUse=3 WtCom= 9.31D-01 WtEn= 6.93D-02
 EnCoef did     2 forward-backward iterations
 Coeff-Com:  0.187D-02-0.276D-02 0.498D-01 0.971D-01 0.376D+00 0.192D+00
 Coeff-Com:  0.286D+00
 Coeff-En:   0.000D+00 0.000D+00 0.000D+00 0.000D+00 0.505D+00 0.288D+00
 Coeff-En:   0.207D+00
 Coeff:      0.174D-02-0.257D-02 0.464D-01 0.904D-01 0.385D+00 0.199D+00
 Coeff:      0.280D+00
 Gap=     0.060 Goal=   None    Shift=    0.000
 RMSDP=3.19D-04 MaxDP=1.10D-02 DE=-7.28D-04 OVMax= 1.52D-02

 Cycle   8  Pass 1  IDiag  1:
 E= -3840.13474491925     Delta-E=       -0.002955245707 Rises=F Damp=F
 DIIS: error= 2.67D-04 at cycle   8 NSaved=   8.
 NSaved= 8 IEnMin= 8 EnMin= -3840.13474491925     IErMin= 8 ErrMin= 2.67D-04
 ErrMax= 2.67D-04 EMaxC= 1.00D-01 BMatC= 5.30D-06 BMatP= 2.04D-03
 IDIUse=3 WtCom= 9.97D-01 WtEn= 2.67D-03
 Coeff-Com:  0.483D-03-0.114D-02 0.304D-02 0.727D-02 0.100D+00 0.579D-01
 Coeff-Com:  0.272D-01 0.805D+00
 Coeff-En:   0.000D+00 0.000D+00 0.000D+00 0.000D+00 0.000D+00 0.000D+00
 Coeff-En:   0.000D+00 0.100D+01
 Coeff:      0.482D-03-0.113D-02 0.303D-02 0.725D-02 0.998D-01 0.577D-01
 Coeff:      0.271D-01 0.806D+00
 Gap=     0.060 Goal=   None    Shift=    0.000
 RMSDP=1.47D-05 MaxDP=4.27D-04 DE=-2.96D-03 OVMax= 5.03D-04

 Cycle   9  Pass 1  IDiag  1:
 E= -3840.13475121494     Delta-E=       -0.000006295690 Rises=F Damp=F
 DIIS: error= 3.63D-05 at cycle   9 NSaved=   9.
 NSaved= 9 IEnMin= 9 EnMin= -3840.13475121494     IErMin= 9 ErrMin= 3.63D-05
 ErrMax= 3.63D-05 EMaxC= 1.00D-01 BMatC= 1.58D-07 BMatP= 5.30D-06
 IDIUse=1 WtCom= 1.00D+00 WtEn= 0.00D+00
 Coeff-Com:  0.741D-04-0.238D-03-0.836D-03-0.111D-02 0.223D-01 0.147D-01
 Coeff-Com: -0.413D-02 0.272D+00 0.697D+00
 Coeff:      0.741D-04-0.238D-03-0.836D-03-0.111D-02 0.223D-01 0.147D-01
 Coeff:     -0.413D-02 0.272D+00 0.697D+00
 Gap=     0.060 Goal=   None    Shift=    0.000
 RMSDP=3.96D-06 MaxDP=7.88D-05 DE=-6.30D-06 OVMax= 8.40D-05

 Cycle  10  Pass 1  IDiag  1:
 E= -3840.13475139848     Delta-E=       -0.000000183548 Rises=F Damp=F
 DIIS: error= 4.95D-06 at cycle  10 NSaved=  10.
 NSaved=10 IEnMin=10 EnMin= -3840.13475139848     IErMin=10 ErrMin= 4.95D-06
 ErrMax= 4.95D-06 EMaxC= 1.00D-01 BMatC= 4.11D-09 BMatP= 1.58D-07
 IDIUse=1 WtCom= 1.00D+00 WtEn= 0.00D+00
 Coeff-Com:  0.305D-04-0.422D-04-0.246D-03-0.280D-03-0.189D-03 0.568D-03
 Coeff-Com: -0.171D-02 0.775D-02 0.171D+00 0.823D+00
 Coeff:      0.305D-04-0.422D-04-0.246D-03-0.280D-03-0.189D-03 0.568D-03
 Coeff:     -0.171D-02 0.775D-02 0.171D+00 0.823D+00
 Gap=     0.060 Goal=   None    Shift=    0.000
 RMSDP=6.67D-07 MaxDP=1.43D-05 DE=-1.84D-07 OVMax= 2.25D-05

 Cycle  11  Pass 1  IDiag  1:
 E= -3840.13475140346     Delta-E=       -0.000000004974 Rises=F Damp=F
 DIIS: error= 1.49D-06 at cycle  11 NSaved=  11.
 NSaved=11 IEnMin=11 EnMin= -3840.13475140346     IErMin=11 ErrMin= 1.49D-06
 ErrMax= 1.49D-06 EMaxC= 1.00D-01 BMatC= 2.96D-10 BMatP= 4.11D-09
 IDIUse=1 WtCom= 1.00D+00 WtEn= 0.00D+00
 Coeff-Com:  0.124D-04-0.127D-04-0.810D-04-0.923D-04-0.861D-03-0.323D-03
 Coeff-Com: -0.666D-03-0.650D-02 0.436D-01 0.321D+00 0.644D+00
 Coeff:      0.124D-04-0.127D-04-0.810D-04-0.923D-04-0.861D-03-0.323D-03
 Coeff:     -0.666D-03-0.650D-02 0.436D-01 0.321D+00 0.644D+00
 Gap=     0.060 Goal=   None    Shift=    0.000
 RMSDP=2.15D-07 MaxDP=9.43D-06 DE=-4.97D-09 OVMax= 1.99D-05

 Cycle  12  Pass 1  IDiag  1:
 E= -3840.13475140367     Delta-E=       -0.000000000216 Rises=F Damp=F
 DIIS: error= 1.74D-06 at cycle  12 NSaved=  12.
 NSaved=12 IEnMin=12 EnMin= -3840.13475140367     IErMin=11 ErrMin= 1.49D-06
 ErrMax= 1.74D-06 EMaxC= 1.00D-01 BMatC= 1.45D-10 BMatP= 2.96D-10
 IDIUse=1 WtCom= 1.00D+00 WtEn= 0.00D+00
 Coeff-Com:  0.290D-05-0.192D-05-0.155D-04-0.230D-04-0.473D-03-0.161D-03
 Coeff-Com: -0.177D-03-0.421D-02 0.820D-03 0.616D-01 0.316D+00 0.626D+00
 Coeff:      0.290D-05-0.192D-05-0.155D-04-0.230D-04-0.473D-03-0.161D-03
 Coeff:     -0.177D-03-0.421D-02 0.820D-03 0.616D-01 0.316D+00 0.626D+00
 Gap=     0.060 Goal=   None    Shift=    0.000
 RMSDP=7.48D-08 MaxDP=1.87D-06 DE=-2.16D-10 OVMax= 3.99D-06

 Cycle  13  Pass 1  IDiag  1:
 E= -3840.13475140381     Delta-E=       -0.000000000135 Rises=F Damp=F
 DIIS: error= 3.08D-07 at cycle  13 NSaved=  13.
 NSaved=13 IEnMin=13 EnMin= -3840.13475140381     IErMin=13 ErrMin= 3.08D-07
 ErrMax= 3.08D-07 EMaxC= 1.00D-01 BMatC= 6.88D-12 BMatP= 1.45D-10
 IDIUse=1 WtCom= 1.00D+00 WtEn= 0.00D+00
 Coeff-Com: -0.337D-06 0.363D-06 0.594D-05 0.671D-05-0.997D-05 0.323D-04
 Coeff-Com:  0.212D-04-0.428D-04-0.374D-02-0.169D-01 0.131D-03 0.961D-01
 Coeff-Com:  0.924D+00
 Coeff:     -0.337D-06 0.363D-06 0.594D-05 0.671D-05-0.997D-05 0.323D-04
 Coeff:      0.212D-04-0.428D-04-0.374D-02-0.169D-01 0.131D-03 0.961D-01
 Coeff:      0.924D+00
 Gap=     0.060 Goal=   None    Shift=    0.000
 RMSDP=2.33D-08 MaxDP=1.12D-06 DE=-1.35D-10 OVMax= 1.95D-06

 Cycle  14  Pass 1  IDiag  1:
 E= -3840.13475140387     Delta-E=       -0.000000000056 Rises=F Damp=F
 DIIS: error= 2.07D-07 at cycle  14 NSaved=  14.
 NSaved=14 IEnMin=14 EnMin= -3840.13475140387     IErMin=14 ErrMin= 2.07D-07
 ErrMax= 2.07D-07 EMaxC= 1.00D-01 BMatC= 2.14D-12 BMatP= 6.88D-12
 IDIUse=1 WtCom= 1.00D+00 WtEn= 0.00D+00
 Coeff-Com:  0.917D-07-0.164D-06-0.203D-05-0.185D-05 0.650D-05 0.128D-04
 Coeff-Com:  0.529D-05 0.179D-03 0.133D-02 0.330D-02-0.102D-01-0.764D-01
 Coeff-Com: -0.357D+00 0.144D+01
 Coeff:      0.917D-07-0.164D-06-0.203D-05-0.185D-05 0.650D-05 0.128D-04
 Coeff:      0.529D-05 0.179D-03 0.133D-02 0.330D-02-0.102D-01-0.764D-01
 Coeff:     -0.357D+00 0.144D+01
 Gap=     0.060 Goal=   None    Shift=    0.000
 RMSDP=1.45D-08 MaxDP=6.33D-07 DE=-5.64D-11 OVMax= 1.01D-06

 Cycle  15  Pass 1  IDiag  1:
 E= -3840.13475140386     Delta-E=        0.000000000010 Rises=F Damp=F
 DIIS: error= 4.37D-08 at cycle  15 NSaved=  15.
 NSaved=15 IEnMin=14 EnMin= -3840.13475140387     IErMin=15 ErrMin= 4.37D-08
 ErrMax= 4.37D-08 EMaxC= 1.00D-01 BMatC= 1.01D-13 BMatP= 2.14D-12
 IDIUse=1 WtCom= 1.00D+00 WtEn= 0.00D+00
 Coeff-Com: -0.504D-08 0.212D-07-0.564D-07-0.324D-06-0.114D-05-0.815D-07
 Coeff-Com: -0.248D-05-0.270D-04 0.894D-04 0.714D-03 0.175D-02 0.252D-02
 Coeff-Com: -0.945D-02-0.284D+00 0.129D+01
 Coeff:     -0.504D-08 0.212D-07-0.564D-07-0.324D-06-0.114D-05-0.815D-07
 Coeff:     -0.248D-05-0.270D-04 0.894D-04 0.714D-03 0.175D-02 0.252D-02
 Coeff:     -0.945D-02-0.284D+00 0.129D+01
 Gap=     0.060 Goal=   None    Shift=    0.000
 RMSDP=4.21D-09 MaxDP=2.04D-07 DE= 1.00D-11 OVMax= 3.15D-07

 SCF Done:  E(RB3LYP) =  -3840.13475140     A.U. after   15 cycles
             Convg  =    0.4214D-08             -V/T =  2.0307
 KE= 3.725692386691D+03 PE=-1.295885163917D+04 EE= 3.474646697936D+03
 Leave Link  502 at Tue May  5 12:47:22 2015, MaxMem= 1073741824 cpu:      77.6
 (Enter /usr/g09/l601.exe)
 Copying SCF densities to generalized density rwf, IOpCl= 0 IROHF=0.

 **********************************************************************

            Population analysis using the SCF density.

 **********************************************************************

 Orbital symmetries:
       Occupied  (E) (E) (B2) (A1) (E) (E) (A1) (B2) (E) (E) (B2)
                 (A1) (E) (E) (A1) (B2) (B2) (A1) (E) (E) (A1)
                 (E) (E) (B2) (B2) (A1) (E) (E) (B2) (A1) (E) (E)
                 (A2) (E) (E) (B1) (E) (E) (A2) (B1) (A1) (A1)
                 (A1) (E) (E) (E) (E) (A1) (A1) (A1) (B2) (E) (E)
                 (B2) (E) (E) (A1) (B2) (A1) (B2) (B1) (E) (E)
                 (B1) (A1) (E) (E) (E) (E) (A1) (A1) (B2) (E) (E)
                 (E) (E) (E) (E) (B2) (A2) (A2) (E) (E) (B1)
       Virtual   (B1) (E) (E) (A1) (B2) (B2) (A1) (A1) (A1) (E)
                 (E) (E) (E) (A1) (A1) (E) (E) (A1) (E) (E) (A1)
                 (B2) (B2) (B1) (B1) (B1) (E) (E) (B2) (E) (E)
                 (E) (E) (A1) (A1) (E) (E) (B1) (E) (E) (A1) (E)
                 (E) (A2) (A1) (E) (E) (B2) (B2) (A2) (E) (E) (A1)
                 (B2) (E) (E) (B2) (A1) (E) (E) (B2) (A2) (E) (E)
                 (B1) (B2) (A2) (B1) (E) (E) (E) (E) (A1) (A1)
                 (B2) (E) (E) (A2) (E) (E) (A1) (A2) (E) (E) (A1)
                 (B2) (E) (E) (B1) (A1) (B2) (B2) (A1) (E) (E)
                 (E) (E) (A1) (B1) (E) (E) (B2) (A1) (A1)
 The electronic state is 1-A1.
 Alpha  occ. eigenvalues -- -101.24381-101.24381-101.24380-101.24380-101.24376
 Alpha  occ. eigenvalues -- -101.24376-101.24375-101.24374  -9.17699  -9.17699
 Alpha  occ. eigenvalues --   -9.17697  -9.17695  -9.17690  -9.17690  -9.17689
 Alpha  occ. eigenvalues --   -9.17686  -6.93690  -6.93686  -6.93686  -6.93686
 Alpha  occ. eigenvalues --   -6.93681  -6.93681  -6.93681  -6.93680  -6.93211
 Alpha  occ. eigenvalues --   -6.93211  -6.93210  -6.93210  -6.93206  -6.93206
 Alpha  occ. eigenvalues --   -6.93205  -6.93205  -6.93141  -6.93141  -6.93141
 Alpha  occ. eigenvalues --   -6.93139  -6.93136  -6.93136  -6.93136  -6.93133
 Alpha  occ. eigenvalues --   -3.04580  -3.03690  -1.66956  -1.63996  -1.63996
 Alpha  occ. eigenvalues --   -1.63004  -1.63004  -1.59719  -0.56071  -0.55125
 Alpha  occ. eigenvalues --   -0.53598  -0.53345  -0.53345  -0.52790  -0.52650
 Alpha  occ. eigenvalues --   -0.52650  -0.17251  -0.16174  -0.15347  -0.14547
 Alpha  occ. eigenvalues --   -0.14492  -0.14444  -0.14444  -0.12424  -0.12174
 Alpha  occ. eigenvalues --   -0.10799  -0.10799  -0.09775  -0.09775  -0.07739
 Alpha  occ. eigenvalues --   -0.06468  -0.05976  -0.04869  -0.04869  -0.04254
 Alpha  occ. eigenvalues --   -0.04254  -0.03782  -0.03782  -0.02021  -0.01782
 Alpha  occ. eigenvalues --   -0.01144   0.00330   0.00330   0.04858
 Alpha virt. eigenvalues --    0.10874   0.17702   0.17702   0.17976   0.21674
 Alpha virt. eigenvalues --    0.23685   0.24015   0.24924   0.27050   0.27158
 Alpha virt. eigenvalues --    0.27158   0.27266   0.27266   0.35645   0.39527
 Alpha virt. eigenvalues --    0.46961   0.46961   0.57276   0.57620   0.57620
 Alpha virt. eigenvalues --    0.60815   0.60851   0.60938   0.63754   0.64211
 Alpha virt. eigenvalues --    0.66531   0.66737   0.66737   0.70038   0.70469
 Alpha virt. eigenvalues --    0.70469   0.71879   0.71879   0.73836   0.74258
 Alpha virt. eigenvalues --    0.75026   0.75026   0.75373   0.75641   0.75641
 Alpha virt. eigenvalues --    0.78557   0.78748   0.78748   0.79891   0.81286
 Alpha virt. eigenvalues --    0.82530   0.82530   0.82960   0.83296   0.85518
 Alpha virt. eigenvalues --    0.86533   0.86533   0.86776   0.89334   0.90678
 Alpha virt. eigenvalues --    0.90678   0.91435   0.96554   1.07143   1.07143
 Alpha virt. eigenvalues --    1.13258   1.13952   1.13971   1.13971   1.14214
 Alpha virt. eigenvalues --    1.14271   1.14396   1.14645   1.14668   1.14668
 Alpha virt. eigenvalues --    1.14929   1.14929   1.17383   1.17688   1.17898
 Alpha virt. eigenvalues --    1.17899   1.17899   1.18138   1.19323   1.19323
 Alpha virt. eigenvalues --    1.19616   1.19753   1.21138   1.21138   1.24090
 Alpha virt. eigenvalues --    1.26442   1.29731   1.29731   1.33387   1.37159
 Alpha virt. eigenvalues --    1.37935   1.42356   1.43444   1.43883   1.43883
 Alpha virt. eigenvalues --    1.44273   1.44273   1.48067   1.53247   1.62829
 Alpha virt. eigenvalues --    1.62829   1.82624  10.68825  20.86359
     Molecular Orbital Coefficients:
                           1         2         3         4         5
                        (E)--O    (E)--O    (B2)--O   (A1)--O   (E)--O
     Eigenvalues --  -101.24381-101.24381-101.24380-101.24380-101.24376
   1 1   Re 1S          0.00000   0.00000   0.00000   0.00022   0.00000
   2        2S          0.00000   0.00000   0.00000   0.00044   0.00000
   3        3S          0.00000   0.00000   0.00000  -0.01332   0.00000
   4        4PX         0.00000   0.00047   0.00000   0.00000   0.00000
   5        4PY        -0.00047   0.00000   0.00000   0.00000   0.00001
   6        4PZ         0.00000   0.00000   0.00000   0.00037   0.00000
   7        5PX         0.00000   0.00501   0.00000   0.00000   0.00000
   8        5PY        -0.00501   0.00000   0.00000   0.00000   0.00025
   9        5PZ         0.00000   0.00000   0.00000   0.00378   0.00000
  10        6PX         0.00000   0.00039   0.00000   0.00000   0.00000
  11        6PY        -0.00039   0.00000   0.00000   0.00000  -0.00013
  12        6PZ         0.00000   0.00000   0.00000   0.00094   0.00000
  13        7D 0        0.00000   0.00000   0.00000  -0.00001   0.00000
  14        7D+1        0.00000   0.00002   0.00000   0.00000   0.00000
  15        7D-1       -0.00002   0.00000   0.00000   0.00000   0.00002
  16        7D+2        0.00000   0.00000   0.00015   0.00000   0.00000
  17        7D-2        0.00000   0.00000   0.00000   0.00000   0.00000
  18        8D 0        0.00000   0.00000   0.00000  -0.00011   0.00000
  19        8D+1        0.00000   0.00007   0.00000   0.00000   0.00000
  20        8D-1       -0.00007   0.00000   0.00000   0.00000  -0.00046
  21        8D+2        0.00000   0.00000   0.00034   0.00000   0.00000
  22        8D-2        0.00000   0.00000   0.00000   0.00000   0.00000
  23 2   Re 1S          0.00000   0.00000   0.00000  -0.00003   0.00000
  24        2S          0.00000   0.00000   0.00000  -0.00022   0.00000
  25        3S          0.00000   0.00000   0.00000   0.00983   0.00000
  26        4PX         0.00000  -0.00030   0.00000   0.00000   0.00000
  27        4PY         0.00030   0.00000   0.00000   0.00000  -0.00036
  28        4PZ         0.00000   0.00000   0.00000   0.00042   0.00000
  29        5PX         0.00000  -0.00331   0.00000   0.00000   0.00000
  30        5PY         0.00331   0.00000   0.00000   0.00000  -0.00376
  31        5PZ         0.00000   0.00000   0.00000   0.00457   0.00000
  32        6PX         0.00000  -0.00014   0.00000   0.00000   0.00000
  33        6PY         0.00014   0.00000   0.00000   0.00000  -0.00039
  34        6PZ         0.00000   0.00000   0.00000   0.00048   0.00000
  35        7D 0        0.00000   0.00000   0.00000  -0.00006   0.00000
  36        7D+1        0.00000   0.00002   0.00000   0.00000   0.00000
  37        7D-1       -0.00002   0.00000   0.00000   0.00000   0.00000
  38        7D+2        0.00000   0.00000  -0.00015   0.00000   0.00000
  39        7D-2        0.00000   0.00000   0.00000   0.00000   0.00000
  40        8D 0        0.00000   0.00000   0.00000   0.00087   0.00000
  41        8D+1        0.00000  -0.00031   0.00000   0.00000   0.00000
  42        8D-1        0.00031   0.00000   0.00000   0.00000   0.00034
  43        8D+2        0.00000   0.00000   0.00011   0.00000   0.00000
  44        8D-2        0.00000   0.00000   0.00000   0.00000   0.00000
  45 3   Cl 1S         -0.23193   0.00000  -0.18857  -0.10561   0.66534
  46        2S         -0.00293   0.00000  -0.00240  -0.00134   0.00845
  47        2PX         0.00000  -0.00001   0.00000   0.00000   0.00000
  48        2PY         0.00002   0.00000   0.00002   0.00001  -0.00004
  49        2PZ        -0.00001   0.00000  -0.00002   0.00000   0.00001
  50        3S          0.00155   0.00000   0.00112   0.00066  -0.00370
  51        3PX         0.00000   0.00007   0.00000   0.00000   0.00000
  52        3PY        -0.00008   0.00000  -0.00011  -0.00004   0.00015
  53        3PZ         0.00007   0.00000   0.00011   0.00002  -0.00005
  54        4S         -0.00238   0.00000  -0.00086  -0.00089   0.00436
  55        4PX         0.00000   0.00010   0.00000   0.00000   0.00000
  56        4PY         0.00082   0.00000   0.00024   0.00009  -0.00131
  57        4PZ        -0.00033   0.00000  -0.00023  -0.00011   0.00035
  58        5D 0        0.00001   0.00000   0.00000  -0.00001  -0.00005
  59        5D+1        0.00000   0.00001   0.00000   0.00000   0.00000
  60        5D-1        0.00004   0.00000   0.00000   0.00002  -0.00004
  61        5D+2        0.00004   0.00000   0.00001  -0.00001  -0.00008
  62        5D-2        0.00000  -0.00004   0.00000   0.00000   0.00000
  63 4   Cl 1S          0.00000  -0.23193   0.18857  -0.10561   0.00000
  64        2S          0.00000  -0.00293   0.00240  -0.00134   0.00000
  65        2PX         0.00000  -0.00002   0.00002  -0.00001   0.00000
  66        2PY         0.00001   0.00000   0.00000   0.00000  -0.00001
  67        2PZ         0.00000  -0.00001   0.00002   0.00000   0.00000
  68        3S          0.00000   0.00155  -0.00112   0.00066   0.00000
  69        3PX         0.00000   0.00008  -0.00011   0.00004   0.00000
  70        3PY        -0.00007   0.00000   0.00000   0.00000   0.00004
  71        3PZ         0.00000   0.00007  -0.00011   0.00002   0.00000
  72        4S          0.00000  -0.00238   0.00086  -0.00089   0.00000
  73        4PX         0.00000  -0.00082   0.00024  -0.00009   0.00000
  74        4PY        -0.00010   0.00000   0.00000   0.00000   0.00024
  75        4PZ         0.00000  -0.00033   0.00023  -0.00011   0.00000
  76        5D 0        0.00000   0.00001   0.00000  -0.00001   0.00000
  77        5D+1        0.00000  -0.00004   0.00000  -0.00002   0.00000
  78        5D-1       -0.00001   0.00000   0.00000   0.00000   0.00003
  79        5D+2        0.00000  -0.00004   0.00001   0.00001   0.00000
  80        5D-2       -0.00004   0.00000   0.00000   0.00000   0.00004
  81 5   Cl 1S          0.00000   0.23193   0.18857  -0.10561   0.00000
  82        2S          0.00000   0.00293   0.00240  -0.00134   0.00000
  83        2PX         0.00000  -0.00002  -0.00002   0.00001   0.00000
  84        2PY         0.00001   0.00000   0.00000   0.00000  -0.00001
  85        2PZ         0.00000   0.00001   0.00002   0.00000   0.00000
  86        3S          0.00000  -0.00155  -0.00112   0.00066   0.00000
  87        3PX         0.00000   0.00008   0.00011  -0.00004   0.00000
  88        3PY        -0.00007   0.00000   0.00000   0.00000   0.00004
  89        3PZ         0.00000  -0.00007  -0.00011   0.00002   0.00000
  90        4S          0.00000   0.00238   0.00086  -0.00089   0.00000
  91        4PX         0.00000  -0.00082  -0.00024   0.00009   0.00000
  92        4PY        -0.00010   0.00000   0.00000   0.00000   0.00024
  93        4PZ         0.00000   0.00033   0.00023  -0.00011   0.00000
  94        5D 0        0.00000  -0.00001   0.00000  -0.00001   0.00000
  95        5D+1        0.00000  -0.00004   0.00000   0.00002   0.00000
  96        5D-1       -0.00001   0.00000   0.00000   0.00000   0.00003
  97        5D+2        0.00000   0.00004   0.00001   0.00001   0.00000
  98        5D-2        0.00004   0.00000   0.00000   0.00000  -0.00004
  99 6   Cl 1S          0.23193   0.00000  -0.18857  -0.10561  -0.66534
 100        2S          0.00293   0.00000  -0.00240  -0.00134  -0.00845
 101        2PX         0.00000  -0.00001   0.00000   0.00000   0.00000
 102        2PY         0.00002   0.00000  -0.00002  -0.00001  -0.00004
 103        2PZ         0.00001   0.00000  -0.00002   0.00000  -0.00001
 104        3S         -0.00155   0.00000   0.00112   0.00066   0.00370
 105        3PX         0.00000   0.00007   0.00000   0.00000   0.00000
 106        3PY        -0.00008   0.00000   0.00011   0.00004   0.00015
 107        3PZ        -0.00007   0.00000   0.00011   0.00002   0.00005
 108        4S          0.00238   0.00000  -0.00086  -0.00089  -0.00436
 109        4PX         0.00000   0.00010   0.00000   0.00000   0.00000
 110        4PY         0.00082   0.00000  -0.00024  -0.00009  -0.00131
 111        4PZ         0.00033   0.00000  -0.00023  -0.00011  -0.00035
 112        5D 0       -0.00001   0.00000   0.00000  -0.00001   0.00005
 113        5D+1        0.00000   0.00001   0.00000   0.00000   0.00000
 114        5D-1        0.00004   0.00000   0.00000  -0.00002  -0.00004
 115        5D+2       -0.00004   0.00000   0.00001  -0.00001   0.00008
 116        5D-2        0.00000   0.00004   0.00000   0.00000   0.00000
 117 7   Cl 1S          0.66533   0.00000   0.46117   0.48691   0.23195
 118        2S          0.00844   0.00000   0.00588   0.00618   0.00296
 119        2PX         0.00000   0.00002   0.00000   0.00000   0.00000
 120        2PY        -0.00004   0.00000  -0.00004  -0.00003  -0.00001
 121        2PZ        -0.00002   0.00000  -0.00002  -0.00001   0.00000
 122        3S         -0.00386   0.00000  -0.00245  -0.00271  -0.00109
 123        3PX         0.00000  -0.00008   0.00000   0.00000   0.00000
 124        3PY         0.00016   0.00000   0.00019   0.00009   0.00003
 125        3PZ         0.00008   0.00000   0.00009   0.00004  -0.00003
 126        4S          0.00490   0.00000   0.00193   0.00332   0.00085
 127        4PX         0.00000  -0.00025   0.00000   0.00000   0.00000
 128        4PY        -0.00154   0.00000  -0.00062  -0.00072  -0.00018
 129        4PZ        -0.00048   0.00000  -0.00025  -0.00035   0.00004
 130        5D 0       -0.00005   0.00000  -0.00003   0.00000  -0.00002
 131        5D+1        0.00000   0.00003   0.00000   0.00000   0.00000
 132        5D-1        0.00005   0.00000   0.00002   0.00005  -0.00001
 133        5D+2       -0.00009   0.00000  -0.00003  -0.00003  -0.00002
 134        5D-2        0.00000   0.00006   0.00000   0.00000   0.00000
 135 8   Cl 1S          0.00000   0.66533  -0.46117   0.48691   0.00000
 136        2S          0.00000   0.00844  -0.00588   0.00618   0.00000
 137        2PX         0.00000   0.00004  -0.00004   0.00003   0.00000
 138        2PY        -0.00002   0.00000   0.00000   0.00000   0.00001
 139        2PZ         0.00000  -0.00002   0.00002  -0.00001   0.00000
 140        3S          0.00000  -0.00386   0.00245  -0.00271   0.00000
 141        3PX         0.00000  -0.00016   0.00019  -0.00009   0.00000
 142        3PY         0.00008   0.00000   0.00000   0.00000  -0.00003
 143        3PZ         0.00000   0.00008  -0.00009   0.00004   0.00000
 144        4S          0.00000   0.00490  -0.00193   0.00332   0.00000
 145        4PX         0.00000   0.00154  -0.00062   0.00072   0.00000
 146        4PY         0.00025   0.00000   0.00000   0.00000   0.00008
 147        4PZ         0.00000  -0.00048   0.00025  -0.00035   0.00000
 148        5D 0        0.00000  -0.00005   0.00003   0.00000   0.00000
 149        5D+1        0.00000  -0.00005   0.00002  -0.00005   0.00000
 150        5D-1       -0.00003   0.00000   0.00000   0.00000  -0.00001
 151        5D+2        0.00000   0.00009  -0.00003   0.00003   0.00000
 152        5D-2        0.00006   0.00000   0.00000   0.00000   0.00000
 153 9   Cl 1S          0.00000  -0.66533  -0.46117   0.48691   0.00000
 154        2S          0.00000  -0.00844  -0.00588   0.00618   0.00000
 155        2PX         0.00000   0.00004   0.00004  -0.00003   0.00000
 156        2PY        -0.00002   0.00000   0.00000   0.00000   0.00001
 157        2PZ         0.00000   0.00002   0.00002  -0.00001   0.00000
 158        3S          0.00000   0.00386   0.00245  -0.00271   0.00000
 159        3PX         0.00000  -0.00016  -0.00019   0.00009   0.00000
 160        3PY         0.00008   0.00000   0.00000   0.00000  -0.00003
 161        3PZ         0.00000  -0.00008  -0.00009   0.00004   0.00000
 162        4S          0.00000  -0.00490  -0.00193   0.00332   0.00000
 163        4PX         0.00000   0.00154   0.00062  -0.00072   0.00000
 164        4PY         0.00025   0.00000   0.00000   0.00000   0.00008
 165        4PZ         0.00000   0.00048   0.00025  -0.00035   0.00000
 166        5D 0        0.00000   0.00005   0.00003   0.00000   0.00000
 167        5D+1        0.00000  -0.00005  -0.00002   0.00005   0.00000
 168        5D-1       -0.00003   0.00000   0.00000   0.00000  -0.00001
 169        5D+2        0.00000  -0.00009  -0.00003   0.00003   0.00000
 170        5D-2       -0.00006   0.00000   0.00000   0.00000   0.00000
 171 10  Cl 1S         -0.66533   0.00000   0.46117   0.48691  -0.23195
 172        2S         -0.00844   0.00000   0.00588   0.00618  -0.00296
 173        2PX         0.00000   0.00002   0.00000   0.00000   0.00000
 174        2PY        -0.00004   0.00000   0.00004   0.00003  -0.00001
 175        2PZ         0.00002   0.00000  -0.00002  -0.00001   0.00000
 176        3S          0.00386   0.00000  -0.00245  -0.00271   0.00109
 177        3PX         0.00000  -0.00008   0.00000   0.00000   0.00000
 178        3PY         0.00016   0.00000  -0.00019  -0.00009   0.00003
 179        3PZ        -0.00008   0.00000   0.00009   0.00004   0.00003
 180        4S         -0.00490   0.00000   0.00193   0.00332  -0.00085
 181        4PX         0.00000  -0.00025   0.00000   0.00000   0.00000
 182        4PY        -0.00154   0.00000   0.00062   0.00072  -0.00018
 183        4PZ         0.00048   0.00000  -0.00025  -0.00035  -0.00004
 184        5D 0        0.00005   0.00000  -0.00003   0.00000   0.00002
 185        5D+1        0.00000   0.00003   0.00000   0.00000   0.00000
 186        5D-1        0.00005   0.00000  -0.00002  -0.00005  -0.00001
 187        5D+2        0.00009   0.00000  -0.00003  -0.00003   0.00002
 188        5D-2        0.00000  -0.00006   0.00000   0.00000   0.00000
                           6         7         8         9        10
                        (E)--O    (A1)--O   (B2)--O   (E)--O    (E)--O
     Eigenvalues --  -101.24376-101.24375-101.24374  -9.17699  -9.17699
   1 1   Re 1S          0.00000   0.00007   0.00000   0.00000   0.00000
   2        2S          0.00000  -0.00004   0.00000   0.00000   0.00000
   3        3S          0.00000   0.00474   0.00000   0.00000   0.00000
   4        4PX        -0.00001   0.00000   0.00000  -0.00234   0.00000
   5        4PY         0.00000   0.00000   0.00000   0.00000   0.00234
   6        4PZ         0.00000  -0.00029   0.00000   0.00000   0.00000
   7        5PX        -0.00025   0.00000   0.00000  -0.02514   0.00000
   8        5PY         0.00000   0.00000   0.00000   0.00000   0.02514
   9        5PZ         0.00000  -0.00330   0.00000   0.00000   0.00000
  10        6PX         0.00013   0.00000   0.00000  -0.00237   0.00000
  11        6PY         0.00000   0.00000   0.00000   0.00000   0.00237
  12        6PZ         0.00000  -0.00010   0.00000   0.00000   0.00000
  13        7D 0        0.00000  -0.00008   0.00000   0.00000   0.00000
  14        7D+1       -0.00002   0.00000   0.00000  -0.00005   0.00000
  15        7D-1        0.00000   0.00000   0.00000   0.00000   0.00005
  16        7D+2        0.00000   0.00000  -0.00006   0.00000   0.00000
  17        7D-2        0.00000   0.00000   0.00000   0.00000   0.00000
  18        8D 0        0.00000   0.00091   0.00000   0.00000   0.00000
  19        8D+1        0.00046   0.00000   0.00000  -0.00003   0.00000
  20        8D-1        0.00000   0.00000   0.00000   0.00000   0.00003
  21        8D+2        0.00000   0.00000   0.00048   0.00000   0.00000
  22        8D-2        0.00000   0.00000   0.00000   0.00000   0.00000
  23 2   Re 1S          0.00000   0.00023   0.00000   0.00000   0.00000
  24        2S          0.00000   0.00038   0.00000   0.00000   0.00000
  25        3S          0.00000  -0.01015   0.00000   0.00000   0.00000
  26        4PX         0.00036   0.00000   0.00000   0.00183   0.00000
  27        4PY         0.00000   0.00000   0.00000   0.00000  -0.00183
  28        4PZ         0.00000  -0.00022   0.00000   0.00000   0.00000
  29        5PX         0.00376   0.00000   0.00000   0.01982   0.00000
  30        5PY         0.00000   0.00000   0.00000   0.00000  -0.01982
  31        5PZ         0.00000  -0.00207   0.00000   0.00000   0.00000
  32        6PX         0.00039   0.00000   0.00000   0.00148   0.00000
  33        6PY         0.00000   0.00000   0.00000   0.00000  -0.00148
  34        6PZ         0.00000  -0.00082   0.00000   0.00000   0.00000
  35        7D 0        0.00000  -0.00004   0.00000   0.00000   0.00000
  36        7D+1        0.00000   0.00000   0.00000  -0.00009   0.00000
  37        7D-1        0.00000   0.00000   0.00000   0.00000   0.00009
  38        7D+2        0.00000   0.00000   0.00006   0.00000   0.00000
  39        7D-2        0.00000   0.00000   0.00000   0.00000   0.00000
  40        8D 0        0.00000   0.00027   0.00000   0.00000   0.00000
  41        8D+1       -0.00034   0.00000   0.00000   0.00115   0.00000
  42        8D-1        0.00000   0.00000   0.00000   0.00000  -0.00115
  43        8D+2        0.00000   0.00000   0.00058   0.00000   0.00000
  44        8D-2        0.00000   0.00000   0.00000   0.00000   0.00000
  45 3   Cl 1S          0.00000   0.48691   0.46117   0.00000   0.10062
  46        2S          0.00000   0.00618   0.00588   0.00000  -0.36235
  47        2PX         0.00001   0.00000   0.00000   0.00007   0.00000
  48        2PY         0.00000  -0.00002  -0.00004   0.00000   0.00097
  49        2PZ         0.00000   0.00001   0.00000   0.00000  -0.00006
  50        3S          0.00000  -0.00267  -0.00234   0.00000  -0.01684
  51        3PX        -0.00004   0.00000   0.00000  -0.00036   0.00000
  52        3PY         0.00000   0.00008   0.00017   0.00000   0.00064
  53        3PZ         0.00000  -0.00003  -0.00002   0.00000  -0.00042
  54        4S          0.00000   0.00324   0.00187   0.00000   0.01691
  55        4PX        -0.00024   0.00000   0.00000  -0.00068   0.00000
  56        4PY         0.00000  -0.00075  -0.00063   0.00000  -0.00532
  57        4PZ         0.00000   0.00034   0.00012   0.00000   0.00200
  58        5D 0        0.00000  -0.00001  -0.00004   0.00000  -0.00008
  59        5D+1       -0.00003   0.00000   0.00000  -0.00006   0.00000
  60        5D-1        0.00000  -0.00005  -0.00003   0.00000  -0.00017
  61        5D+2        0.00000  -0.00004  -0.00004   0.00000  -0.00018
  62        5D-2        0.00004   0.00000   0.00000   0.00019   0.00000
  63 4   Cl 1S          0.66534   0.48691  -0.46117   0.10062   0.00000
  64        2S          0.00845   0.00618  -0.00588  -0.36235   0.00000
  65        2PX         0.00004   0.00002  -0.00004  -0.00097   0.00000
  66        2PY         0.00000   0.00000   0.00000   0.00000  -0.00007
  67        2PZ         0.00001   0.00001   0.00000  -0.00006   0.00000
  68        3S         -0.00370  -0.00267   0.00234  -0.01684   0.00000
  69        3PX        -0.00015  -0.00008   0.00017  -0.00064   0.00000
  70        3PY         0.00000   0.00000   0.00000   0.00000   0.00036
  71        3PZ        -0.00005  -0.00003   0.00002  -0.00042   0.00000
  72        4S          0.00436   0.00324  -0.00187   0.01691   0.00000
  73        4PX         0.00131   0.00075  -0.00063   0.00532   0.00000
  74        4PY         0.00000   0.00000   0.00000   0.00000   0.00068
  75        4PZ         0.00035   0.00034  -0.00012   0.00200   0.00000
  76        5D 0       -0.00005  -0.00001   0.00004  -0.00008   0.00000
  77        5D+1        0.00004   0.00005  -0.00003   0.00017   0.00000
  78        5D-1        0.00000   0.00000   0.00000   0.00000   0.00006
  79        5D+2        0.00008   0.00004  -0.00004   0.00018   0.00000
  80        5D-2        0.00000   0.00000   0.00000   0.00000   0.00019
  81 5   Cl 1S         -0.66534   0.48691  -0.46117  -0.10062   0.00000
  82        2S         -0.00845   0.00618  -0.00588   0.36235   0.00000
  83        2PX         0.00004  -0.00002   0.00004  -0.00097   0.00000
  84        2PY         0.00000   0.00000   0.00000   0.00000  -0.00007
  85        2PZ        -0.00001   0.00001   0.00000   0.00006   0.00000
  86        3S          0.00370  -0.00267   0.00234   0.01684   0.00000
  87        3PX        -0.00015   0.00008  -0.00017  -0.00064   0.00000
  88        3PY         0.00000   0.00000   0.00000   0.00000   0.00036
  89        3PZ         0.00005  -0.00003   0.00002   0.00042   0.00000
  90        4S         -0.00436   0.00324  -0.00187  -0.01691   0.00000
  91        4PX         0.00131  -0.00075   0.00063   0.00532   0.00000
  92        4PY         0.00000   0.00000   0.00000   0.00000   0.00068
  93        4PZ        -0.00035   0.00034  -0.00012  -0.00200   0.00000
  94        5D 0        0.00005  -0.00001   0.00004   0.00008   0.00000
  95        5D+1        0.00004  -0.00005   0.00003   0.00017   0.00000
  96        5D-1        0.00000   0.00000   0.00000   0.00000   0.00006
  97        5D+2       -0.00008   0.00004  -0.00004  -0.00018   0.00000
  98        5D-2        0.00000   0.00000   0.00000   0.00000  -0.00019
  99 6   Cl 1S          0.00000   0.48691   0.46117   0.00000  -0.10062
 100        2S          0.00000   0.00618   0.00588   0.00000   0.36235
 101        2PX         0.00001   0.00000   0.00000   0.00007   0.00000
 102        2PY         0.00000   0.00002   0.00004   0.00000   0.00097
 103        2PZ         0.00000   0.00001   0.00000   0.00000   0.00006
 104        3S          0.00000  -0.00267  -0.00234   0.00000   0.01684
 105        3PX        -0.00004   0.00000   0.00000  -0.00036   0.00000
 106        3PY         0.00000  -0.00008  -0.00017   0.00000   0.00064
 107        3PZ         0.00000  -0.00003  -0.00002   0.00000   0.00042
 108        4S          0.00000   0.00324   0.00187   0.00000  -0.01691
 109        4PX        -0.00024   0.00000   0.00000  -0.00068   0.00000
 110        4PY         0.00000   0.00075   0.00063   0.00000  -0.00532
 111        4PZ         0.00000   0.00034   0.00012   0.00000  -0.00200
 112        5D 0        0.00000  -0.00001  -0.00004   0.00000   0.00008
 113        5D+1       -0.00003   0.00000   0.00000  -0.00006   0.00000
 114        5D-1        0.00000   0.00005   0.00003   0.00000  -0.00017
 115        5D+2        0.00000  -0.00004  -0.00004   0.00000   0.00018
 116        5D-2       -0.00004   0.00000   0.00000  -0.00019   0.00000
 117 7   Cl 1S          0.00000   0.10562   0.18858   0.00000  -0.17505
 118        2S          0.00000   0.00134   0.00240   0.00000   0.63019
 119        2PX        -0.00001   0.00000   0.00000  -0.00007   0.00000
 120        2PY         0.00000   0.00000  -0.00001   0.00000  -0.00171
 121        2PZ         0.00000   0.00000   0.00001   0.00000  -0.00014
 122        3S          0.00000  -0.00051  -0.00084   0.00000   0.02809
 123        3PX         0.00003   0.00000   0.00000   0.00038   0.00000
 124        3PY         0.00000   0.00000   0.00004   0.00000  -0.00099
 125        3PZ         0.00000   0.00000  -0.00007   0.00000  -0.00046
 126        4S          0.00000   0.00053   0.00069   0.00000  -0.02543
 127        4PX        -0.00008   0.00000   0.00000   0.00117   0.00000
 128        4PY         0.00000  -0.00022  -0.00027   0.00000   0.00759
 129        4PZ         0.00000  -0.00004   0.00008   0.00000   0.00247
 130        5D 0        0.00000  -0.00001  -0.00002   0.00000   0.00015
 131        5D+1        0.00001   0.00000   0.00000  -0.00011   0.00000
 132        5D-1        0.00000   0.00001   0.00002   0.00000  -0.00018
 133        5D+2        0.00000  -0.00002  -0.00002   0.00000   0.00026
 134        5D-2        0.00000   0.00000   0.00000  -0.00025   0.00000
 135 8   Cl 1S          0.23195   0.10562  -0.18858  -0.17505   0.00000
 136        2S          0.00296   0.00134  -0.00240   0.63019   0.00000
 137        2PX         0.00001   0.00000  -0.00001   0.00171   0.00000
 138        2PY         0.00000   0.00000   0.00000   0.00000   0.00007
 139        2PZ         0.00000   0.00000  -0.00001  -0.00014   0.00000
 140        3S         -0.00109  -0.00051   0.00084   0.02809   0.00000
 141        3PX        -0.00003   0.00000   0.00004   0.00099   0.00000
 142        3PY         0.00000   0.00000   0.00000   0.00000  -0.00038
 143        3PZ        -0.00003   0.00000   0.00007  -0.00046   0.00000
 144        4S          0.00085   0.00053  -0.00069  -0.02543   0.00000
 145        4PX         0.00018   0.00022  -0.00027  -0.00759   0.00000
 146        4PY         0.00000   0.00000   0.00000   0.00000  -0.00117
 147        4PZ         0.00004  -0.00004  -0.00008   0.00247   0.00000
 148        5D 0       -0.00002  -0.00001   0.00002   0.00015   0.00000
 149        5D+1        0.00001  -0.00001   0.00002   0.00018   0.00000
 150        5D-1        0.00000   0.00000   0.00000   0.00000   0.00011
 151        5D+2        0.00002   0.00002  -0.00002  -0.00026   0.00000
 152        5D-2        0.00000   0.00000   0.00000   0.00000  -0.00025
 153 9   Cl 1S         -0.23195   0.10562  -0.18858   0.17505   0.00000
 154        2S         -0.00296   0.00134  -0.00240  -0.63019   0.00000
 155        2PX         0.00001   0.00000   0.00001   0.00171   0.00000
 156        2PY         0.00000   0.00000   0.00000   0.00000   0.00007
 157        2PZ         0.00000   0.00000  -0.00001   0.00014   0.00000
 158        3S          0.00109  -0.00051   0.00084  -0.02809   0.00000
 159        3PX        -0.00003   0.00000  -0.00004   0.00099   0.00000
 160        3PY         0.00000   0.00000   0.00000   0.00000  -0.00038
 161        3PZ         0.00003   0.00000   0.00007   0.00046   0.00000
 162        4S         -0.00085   0.00053  -0.00069   0.02543   0.00000
 163        4PX         0.00018  -0.00022   0.00027  -0.00759   0.00000
 164        4PY         0.00000   0.00000   0.00000   0.00000  -0.00117
 165        4PZ        -0.00004  -0.00004  -0.00008  -0.00247   0.00000
 166        5D 0        0.00002  -0.00001   0.00002  -0.00015   0.00000
 167        5D+1        0.00001   0.00001  -0.00002   0.00018   0.00000
 168        5D-1        0.00000   0.00000   0.00000   0.00000   0.00011
 169        5D+2       -0.00002   0.00002  -0.00002   0.00026   0.00000
 170        5D-2        0.00000   0.00000   0.00000   0.00000   0.00025
 171 10  Cl 1S          0.00000   0.10562   0.18858   0.00000   0.17505
 172        2S          0.00000   0.00134   0.00240   0.00000  -0.63019
 173        2PX        -0.00001   0.00000   0.00000  -0.00007   0.00000
 174        2PY         0.00000   0.00000   0.00001   0.00000  -0.00171
 175        2PZ         0.00000   0.00000   0.00001   0.00000   0.00014
 176        3S          0.00000  -0.00051  -0.00084   0.00000  -0.02809
 177        3PX         0.00003   0.00000   0.00000   0.00038   0.00000
 178        3PY         0.00000   0.00000  -0.00004   0.00000  -0.00099
 179        3PZ         0.00000   0.00000  -0.00007   0.00000   0.00046
 180        4S          0.00000   0.00053   0.00069   0.00000   0.02543
 181        4PX        -0.00008   0.00000   0.00000   0.00117   0.00000
 182        4PY         0.00000   0.00022   0.00027   0.00000   0.00759
 183        4PZ         0.00000  -0.00004   0.00008   0.00000  -0.00247
 184        5D 0        0.00000  -0.00001  -0.00002   0.00000  -0.00015
 185        5D+1        0.00001   0.00000   0.00000  -0.00011   0.00000
 186        5D-1        0.00000  -0.00001  -0.00002   0.00000  -0.00018
 187        5D+2        0.00000  -0.00002  -0.00002   0.00000  -0.00026
 188        5D-2        0.00000   0.00000   0.00000   0.00025   0.00000
                          11        12        13        14        15
                        (B2)--O   (A1)--O   (E)--O    (E)--O    (A1)--O
     Eigenvalues --    -9.17697  -9.17695  -9.17690  -9.17690  -9.17689
   1 1   Re 1S          0.00000   0.00012   0.00000   0.00000  -0.00041
   2        2S          0.00000  -0.00144   0.00000   0.00000  -0.00024
   3        3S          0.00000   0.06661   0.00000   0.00000  -0.01159
   4        4PX         0.00000   0.00000  -0.00039   0.00000   0.00000
   5        4PY         0.00000   0.00000   0.00000   0.00039   0.00000
   6        4PZ         0.00000  -0.00229   0.00000   0.00000   0.00118
   7        5PX         0.00000   0.00000  -0.00377   0.00000   0.00000
   8        5PY         0.00000   0.00000   0.00000   0.00377   0.00000
   9        5PZ         0.00000  -0.02193   0.00000   0.00000   0.01437
  10        6PX         0.00000   0.00000  -0.00111   0.00000   0.00000
  11        6PY         0.00000   0.00000   0.00000   0.00111   0.00000
  12        6PZ         0.00000  -0.00404   0.00000   0.00000  -0.00046
  13        7D 0        0.00000   0.00003   0.00000   0.00000   0.00053
  14        7D+1        0.00000   0.00000   0.00009   0.00000   0.00000
  15        7D-1        0.00000   0.00000   0.00000  -0.00009   0.00000
  16        7D+2       -0.00067   0.00000   0.00000   0.00000   0.00000
  17        7D-2        0.00000   0.00000   0.00000   0.00000   0.00000
  18        8D 0        0.00000   0.00201   0.00000   0.00000  -0.00526
  19        8D+1        0.00000   0.00000  -0.00236   0.00000   0.00000
  20        8D-1        0.00000   0.00000   0.00000   0.00236   0.00000
  21        8D+2       -0.00145   0.00000   0.00000   0.00000   0.00000
  22        8D-2        0.00000   0.00000   0.00000   0.00000   0.00000
  23 2   Re 1S          0.00000  -0.00038   0.00000   0.00000  -0.00018
  24        2S          0.00000   0.00077   0.00000   0.00000  -0.00123
  25        3S          0.00000  -0.05282   0.00000   0.00000   0.04218
  26        4PX         0.00000   0.00000  -0.00151   0.00000   0.00000
  27        4PY         0.00000   0.00000   0.00000   0.00151   0.00000
  28        4PZ         0.00000  -0.00240   0.00000   0.00000   0.00093
  29        5PX         0.00000   0.00000  -0.01588   0.00000   0.00000
  30        5PY         0.00000   0.00000   0.00000   0.01588   0.00000
  31        5PZ         0.00000  -0.02529   0.00000   0.00000   0.00690
  32        6PX         0.00000   0.00000  -0.00216   0.00000   0.00000
  33        6PY         0.00000   0.00000   0.00000   0.00216   0.00000
  34        6PZ         0.00000  -0.00233   0.00000   0.00000   0.00333
  35        7D 0        0.00000   0.00038   0.00000   0.00000   0.00037
  36        7D+1        0.00000   0.00000  -0.00006   0.00000   0.00000
  37        7D-1        0.00000   0.00000   0.00000   0.00006   0.00000
  38        7D+2        0.00072   0.00000   0.00000   0.00000   0.00000
  39        7D-2        0.00000   0.00000   0.00000   0.00000   0.00000
  40        8D 0        0.00000  -0.00527   0.00000   0.00000  -0.00196
  41        8D+1        0.00000   0.00000   0.00205   0.00000   0.00000
  42        8D-1        0.00000   0.00000   0.00000  -0.00205   0.00000
  43        8D+2        0.00022   0.00000   0.00000   0.00000   0.00000
  44        8D-2        0.00000   0.00000   0.00000   0.00000   0.00000
  45 3   Cl 1S          0.07792   0.05063   0.00000  -0.17509  -0.13354
  46        2S         -0.28040  -0.18223   0.00000   0.63012   0.48056
  47        2PX         0.00000   0.00000  -0.00002   0.00000   0.00000
  48        2PY         0.00070   0.00048   0.00000  -0.00172  -0.00132
  49        2PZ         0.00000  -0.00004   0.00000   0.00019   0.00014
  50        3S         -0.01221  -0.00799   0.00000   0.02690   0.02032
  51        3PX         0.00000   0.00000   0.00013   0.00000   0.00000
  52        3PY         0.00078   0.00033   0.00000  -0.00087  -0.00058
  53        3PZ        -0.00059  -0.00016   0.00000   0.00020   0.00016
  54        4S          0.00697   0.00635   0.00000  -0.02147  -0.01655
  55        4PX         0.00000   0.00000   0.00114   0.00000   0.00000
  56        4PY        -0.00195  -0.00060   0.00000   0.00593   0.00375
  57        4PZ         0.00135   0.00074   0.00000  -0.00148  -0.00157
  58        5D 0       -0.00001   0.00009   0.00000   0.00017   0.00001
  59        5D+1        0.00000   0.00000   0.00013   0.00000   0.00000
  60        5D-1       -0.00002  -0.00006   0.00000   0.00007   0.00017
  61        5D+2        0.00000   0.00008   0.00000   0.00021   0.00009
  62        5D-2        0.00000   0.00000  -0.00016   0.00000   0.00000
  63 4   Cl 1S         -0.07792   0.05063  -0.17509   0.00000  -0.13354
  64        2S          0.28040  -0.18223   0.63012   0.00000   0.48056
  65        2PX         0.00070  -0.00048   0.00172   0.00000   0.00132
  66        2PY         0.00000   0.00000   0.00000   0.00002   0.00000
  67        2PZ         0.00000  -0.00004   0.00019   0.00000   0.00014
  68        3S          0.01221  -0.00799   0.02690   0.00000   0.02032
  69        3PX         0.00078  -0.00033   0.00087   0.00000   0.00058
  70        3PY         0.00000   0.00000   0.00000  -0.00013   0.00000
  71        3PZ         0.00059  -0.00016   0.00020   0.00000   0.00016
  72        4S         -0.00697   0.00635  -0.02147   0.00000  -0.01655
  73        4PX        -0.00195   0.00060  -0.00593   0.00000  -0.00375
  74        4PY         0.00000   0.00000   0.00000  -0.00114   0.00000
  75        4PZ        -0.00135   0.00074  -0.00148   0.00000  -0.00157
  76        5D 0        0.00001   0.00009   0.00017   0.00000   0.00001
  77        5D+1       -0.00002   0.00006  -0.00007   0.00000  -0.00017
  78        5D-1        0.00000   0.00000   0.00000  -0.00013   0.00000
  79        5D+2        0.00000  -0.00008  -0.00021   0.00000  -0.00009
  80        5D-2        0.00000   0.00000   0.00000  -0.00016   0.00000
  81 5   Cl 1S         -0.07792   0.05063   0.17509   0.00000  -0.13354
  82        2S          0.28040  -0.18223  -0.63012   0.00000   0.48056
  83        2PX        -0.00070   0.00048   0.00172   0.00000  -0.00132
  84        2PY         0.00000   0.00000   0.00000   0.00002   0.00000
  85        2PZ         0.00000  -0.00004  -0.00019   0.00000   0.00014
  86        3S          0.01221  -0.00799  -0.02690   0.00000   0.02032
  87        3PX        -0.00078   0.00033   0.00087   0.00000  -0.00058
  88        3PY         0.00000   0.00000   0.00000  -0.00013   0.00000
  89        3PZ         0.00059  -0.00016  -0.00020   0.00000   0.00016
  90        4S         -0.00697   0.00635   0.02147   0.00000  -0.01655
  91        4PX         0.00195  -0.00060  -0.00593   0.00000   0.00375
  92        4PY         0.00000   0.00000   0.00000  -0.00114   0.00000
  93        4PZ        -0.00135   0.00074   0.00148   0.00000  -0.00157
  94        5D 0        0.00001   0.00009  -0.00017   0.00000   0.00001
  95        5D+1        0.00002  -0.00006  -0.00007   0.00000   0.00017
  96        5D-1        0.00000   0.00000   0.00000  -0.00013   0.00000
  97        5D+2        0.00000  -0.00008   0.00021   0.00000  -0.00009
  98        5D-2        0.00000   0.00000   0.00000   0.00016   0.00000
  99 6   Cl 1S          0.07792   0.05063   0.00000   0.17509  -0.13354
 100        2S         -0.28040  -0.18223   0.00000  -0.63012   0.48056
 101        2PX         0.00000   0.00000  -0.00002   0.00000   0.00000
 102        2PY        -0.00070  -0.00048   0.00000  -0.00172   0.00132
 103        2PZ         0.00000  -0.00004   0.00000  -0.00019   0.00014
 104        3S         -0.01221  -0.00799   0.00000  -0.02690   0.02032
 105        3PX         0.00000   0.00000   0.00013   0.00000   0.00000
 106        3PY        -0.00078  -0.00033   0.00000  -0.00087   0.00058
 107        3PZ        -0.00059  -0.00016   0.00000  -0.00020   0.00016
 108        4S          0.00697   0.00635   0.00000   0.02147  -0.01655
 109        4PX         0.00000   0.00000   0.00114   0.00000   0.00000
 110        4PY         0.00195   0.00060   0.00000   0.00593  -0.00375
 111        4PZ         0.00135   0.00074   0.00000   0.00148  -0.00157
 112        5D 0       -0.00001   0.00009   0.00000  -0.00017   0.00001
 113        5D+1        0.00000   0.00000   0.00013   0.00000   0.00000
 114        5D-1        0.00002   0.00006   0.00000   0.00007  -0.00017
 115        5D+2        0.00000   0.00008   0.00000  -0.00021   0.00009
 116        5D-2        0.00000   0.00000   0.00016   0.00000   0.00000
 117 7   Cl 1S         -0.11967  -0.13353   0.00000  -0.10068  -0.05065
 118        2S          0.43059   0.48055   0.00000   0.36224   0.18225
 119        2PX         0.00000   0.00000   0.00001   0.00000   0.00000
 120        2PY        -0.00110  -0.00131   0.00000  -0.00100  -0.00051
 121        2PZ        -0.00006  -0.00013   0.00000  -0.00013  -0.00006
 122        3S          0.01819   0.02051   0.00000   0.01478   0.00750
 123        3PX         0.00000   0.00000  -0.00007   0.00000   0.00000
 124        3PY        -0.00107  -0.00066   0.00000  -0.00043  -0.00014
 125        3PZ        -0.00053  -0.00023   0.00000   0.00003   0.00001
 126        4S         -0.01031  -0.01661   0.00000  -0.01005  -0.00622
 127        4PX         0.00000   0.00000   0.00065   0.00000   0.00000
 128        4PY         0.00304   0.00321   0.00000   0.00245   0.00204
 129        4PZ         0.00140   0.00166   0.00000   0.00027   0.00049
 130        5D 0        0.00007  -0.00005   0.00000   0.00011   0.00008
 131        5D+1        0.00000   0.00000  -0.00008   0.00000   0.00000
 132        5D-1       -0.00005  -0.00016   0.00000   0.00002  -0.00007
 133        5D+2        0.00003   0.00002   0.00000   0.00009   0.00012
 134        5D-2        0.00000   0.00000  -0.00004   0.00000   0.00000
 135 8   Cl 1S          0.11967  -0.13353  -0.10068   0.00000  -0.05065
 136        2S         -0.43059   0.48055   0.36224   0.00000   0.18225
 137        2PX        -0.00110   0.00131   0.00100   0.00000   0.00051
 138        2PY         0.00000   0.00000   0.00000  -0.00001   0.00000
 139        2PZ         0.00006  -0.00013  -0.00013   0.00000  -0.00006
 140        3S         -0.01819   0.02051   0.01478   0.00000   0.00750
 141        3PX        -0.00107   0.00066   0.00043   0.00000   0.00014
 142        3PY         0.00000   0.00000   0.00000   0.00007   0.00000
 143        3PZ         0.00053  -0.00023   0.00003   0.00000   0.00001
 144        4S          0.01031  -0.01661  -0.01005   0.00000  -0.00622
 145        4PX         0.00304  -0.00321  -0.00245   0.00000  -0.00204
 146        4PY         0.00000   0.00000   0.00000  -0.00065   0.00000
 147        4PZ        -0.00140   0.00166   0.00027   0.00000   0.00049
 148        5D 0       -0.00007  -0.00005   0.00011   0.00000   0.00008
 149        5D+1       -0.00005   0.00016  -0.00002   0.00000   0.00007
 150        5D-1        0.00000   0.00000   0.00000   0.00008   0.00000
 151        5D+2        0.00003  -0.00002  -0.00009   0.00000  -0.00012
 152        5D-2        0.00000   0.00000   0.00000  -0.00004   0.00000
 153 9   Cl 1S          0.11967  -0.13353   0.10068   0.00000  -0.05065
 154        2S         -0.43059   0.48055  -0.36224   0.00000   0.18225
 155        2PX         0.00110  -0.00131   0.00100   0.00000  -0.00051
 156        2PY         0.00000   0.00000   0.00000  -0.00001   0.00000
 157        2PZ         0.00006  -0.00013   0.00013   0.00000  -0.00006
 158        3S         -0.01819   0.02051  -0.01478   0.00000   0.00750
 159        3PX         0.00107  -0.00066   0.00043   0.00000  -0.00014
 160        3PY         0.00000   0.00000   0.00000   0.00007   0.00000
 161        3PZ         0.00053  -0.00023  -0.00003   0.00000   0.00001
 162        4S          0.01031  -0.01661   0.01005   0.00000  -0.00622
 163        4PX        -0.00304   0.00321  -0.00245   0.00000   0.00204
 164        4PY         0.00000   0.00000   0.00000  -0.00065   0.00000
 165        4PZ        -0.00140   0.00166  -0.00027   0.00000   0.00049
 166        5D 0       -0.00007  -0.00005  -0.00011   0.00000   0.00008
 167        5D+1        0.00005  -0.00016  -0.00002   0.00000  -0.00007
 168        5D-1        0.00000   0.00000   0.00000   0.00008   0.00000
 169        5D+2        0.00003  -0.00002   0.00009   0.00000  -0.00012
 170        5D-2        0.00000   0.00000   0.00000   0.00004   0.00000
 171 10  Cl 1S         -0.11967  -0.13353   0.00000   0.10068  -0.05065
 172        2S          0.43059   0.48055   0.00000  -0.36224   0.18225
 173        2PX         0.00000   0.00000   0.00001   0.00000   0.00000
 174        2PY         0.00110   0.00131   0.00000  -0.00100   0.00051
 175        2PZ        -0.00006  -0.00013   0.00000   0.00013  -0.00006
 176        3S          0.01819   0.02051   0.00000  -0.01478   0.00750
 177        3PX         0.00000   0.00000  -0.00007   0.00000   0.00000
 178        3PY         0.00107   0.00066   0.00000  -0.00043   0.00014
 179        3PZ        -0.00053  -0.00023   0.00000  -0.00003   0.00001
 180        4S         -0.01031  -0.01661   0.00000   0.01005  -0.00622
 181        4PX         0.00000   0.00000   0.00065   0.00000   0.00000
 182        4PY        -0.00304  -0.00321   0.00000   0.00245  -0.00204
 183        4PZ         0.00140   0.00166   0.00000  -0.00027   0.00049
 184        5D 0        0.00007  -0.00005   0.00000  -0.00011   0.00008
 185        5D+1        0.00000   0.00000  -0.00008   0.00000   0.00000
 186        5D-1        0.00005   0.00016   0.00000   0.00002   0.00007
 187        5D+2        0.00003   0.00002   0.00000  -0.00009   0.00012
 188        5D-2        0.00000   0.00000   0.00004   0.00000   0.00000
                          16        17        18        19        20
                        (B2)--O   (B2)--O   (A1)--O   (E)--O    (E)--O
     Eigenvalues --    -9.17686  -6.93690  -6.93686  -6.93686  -6.93686
   1 1   Re 1S          0.00000   0.00000   0.00075   0.00000   0.00000
   2        2S          0.00000   0.00000  -0.00094   0.00000   0.00000
   3        3S          0.00000   0.00000  -0.00781   0.00000   0.00000
   4        4PX         0.00000   0.00000   0.00000  -0.00099   0.00000
[...]
  60        5D-1        0.00399
  61        5D+2        0.00518
  62        5D-2        0.00460
  63 4   Cl 1S          1.99963
  64        2S          1.99734
  65        2PX         1.98987
  66        2PY         1.99174
  67        2PZ         1.99127
  68        3S          1.40494
  69        3PX         1.11290
  70        3PY         1.27033
  71        3PZ         1.23231
  72        4S          0.51029
  73        4PX         0.49008
  74        4PY         0.61849
  75        4PZ         0.60391
  76        5D 0        0.00242
  77        5D+1        0.00399
  78        5D-1        0.00057
  79        5D+2        0.00518
  80        5D-2        0.00460
  81 5   Cl 1S          1.99963
  82        2S          1.99734
  83        2PX         1.98987
  84        2PY         1.99174
  85        2PZ         1.99127
  86        3S          1.40494
  87        3PX         1.11290
  88        3PY         1.27033
  89        3PZ         1.23231
  90        4S          0.51029
  91        4PX         0.49008
  92        4PY         0.61849
  93        4PZ         0.60391
  94        5D 0        0.00242
  95        5D+1        0.00399
  96        5D-1        0.00057
  97        5D+2        0.00518
  98        5D-2        0.00460
  99 6   Cl 1S          1.99963
 100        2S          1.99734
 101        2PX         1.99174
 102        2PY         1.98987
 103        2PZ         1.99127
 104        3S          1.40494
 105        3PX         1.27033
 106        3PY         1.11290
 107        3PZ         1.23231
 108        4S          0.51029
 109        4PX         0.61849
 110        4PY         0.49008
 111        4PZ         0.60391
 112        5D 0        0.00242
 113        5D+1        0.00057
 114        5D-1        0.00399
 115        5D+2        0.00518
 116        5D-2        0.00460
 117 7   Cl 1S          1.99963
 118        2S          1.99734
 119        2PX         1.99174
 120        2PY         1.98987
 121        2PZ         1.99127
 122        3S          1.40493
 123        3PX         1.27023
 124        3PY         1.11295
 125        3PZ         1.23246
 126        4S          0.51024
 127        4PX         0.61830
 128        4PY         0.49000
 129        4PZ         0.60390
 130        5D 0        0.00243
 131        5D+1        0.00057
 132        5D-1        0.00400
 133        5D+2        0.00518
 134        5D-2        0.00460
 135 8   Cl 1S          1.99963
 136        2S          1.99734
 137        2PX         1.98987
 138        2PY         1.99174
 139        2PZ         1.99127
 140        3S          1.40493
 141        3PX         1.11295
 142        3PY         1.27023
 143        3PZ         1.23246
 144        4S          0.51024
 145        4PX         0.49000
 146        4PY         0.61830
 147        4PZ         0.60390
 148        5D 0        0.00243
 149        5D+1        0.00400
 150        5D-1        0.00057
 151        5D+2        0.00518
 152        5D-2        0.00460
 153 9   Cl 1S          1.99963
 154        2S          1.99734
 155        2PX         1.98987
 156        2PY         1.99174
 157        2PZ         1.99127
 158        3S          1.40493
 159        3PX         1.11295
 160        3PY         1.27023
 161        3PZ         1.23246
 162        4S          0.51024
 163        4PX         0.49000
 164        4PY         0.61830
 165        4PZ         0.60390
 166        5D 0        0.00243
 167        5D+1        0.00400
 168        5D-1        0.00057
 169        5D+2        0.00518
 170        5D-2        0.00460
 171 10  Cl 1S          1.99963
 172        2S          1.99734
 173        2PX         1.99174
 174        2PY         1.98987
 175        2PZ         1.99127
 176        3S          1.40493
 177        3PX         1.27023
 178        3PY         1.11295
 179        3PZ         1.23246
 180        4S          0.51024
 181        4PX         0.61830
 182        4PY         0.49000
 183        4PZ         0.60390
 184        5D 0        0.00243
 185        5D+1        0.00057
 186        5D-1        0.00400
 187        5D+2        0.00518
 188        5D-2        0.00460
          Condensed to atoms (all electrons):
              1          2          3          4          5          6
     1  Re  14.013772   0.081248  -0.016546  -0.016546  -0.016546  -0.016546
     2  Re   0.081248  14.012380   0.263303   0.263303   0.263303   0.263303
     3  Cl  -0.016546   0.263303  17.102643  -0.057653  -0.057653  -0.005885
     4  Cl  -0.016546   0.263303  -0.057653  17.102643  -0.005885  -0.057653
     5  Cl  -0.016546   0.263303  -0.057653  -0.005885  17.102643  -0.057653
     6  Cl  -0.016546   0.263303  -0.005885  -0.057653  -0.057653  17.102643
     7  Cl   0.263236  -0.016670   0.000056   0.000771   0.000771   0.000046
     8  Cl   0.263236  -0.016670   0.000771   0.000056   0.000046   0.000771
     9  Cl   0.263236  -0.016670   0.000771   0.000046   0.000056   0.000771
    10  Cl   0.263236  -0.016670   0.000046   0.000771   0.000771   0.000056
              7          8          9         10
     1  Re   0.263236   0.263236   0.263236   0.263236
     2  Re  -0.016670  -0.016670  -0.016670  -0.016670
     3  Cl   0.000056   0.000771   0.000771   0.000046
     4  Cl   0.000771   0.000056   0.000046   0.000771
     5  Cl   0.000771   0.000046   0.000056   0.000771
     6  Cl   0.000046   0.000771   0.000771   0.000056
     7  Cl  17.102696  -0.057669  -0.057669  -0.005909
     8  Cl  -0.057669  17.102696  -0.005909  -0.057669
     9  Cl  -0.057669  -0.005909  17.102696  -0.057669
    10  Cl  -0.005909  -0.057669  -0.057669  17.102696
 Mulliken atomic charges:
              1
     1  Re  -0.081782
     2  Re  -0.080162
     3  Cl  -0.229853
     4  Cl  -0.229853
     5  Cl  -0.229853
     6  Cl  -0.229853
     7  Cl  -0.229661
     8  Cl  -0.229661
     9  Cl  -0.229661
    10  Cl  -0.229661
 Sum of Mulliken atomic charges =  -2.00000
 Mulliken charges with hydrogens summed into heavy atoms:
              1
     1  Re  -0.081782
     2  Re  -0.080162
     3  Cl  -0.229853
     4  Cl  -0.229853
     5  Cl  -0.229853
     6  Cl  -0.229853
     7  Cl  -0.229661
     8  Cl  -0.229661
     9  Cl  -0.229661
    10  Cl  -0.229661
 Sum of Mulliken charges with hydrogens summed into heavy atoms =  -2.00000
 Electronic spatial extent (au):  <R**2>=           4290.2207
 Charge=             -2.0000 electrons
 Dipole moment (field-independent basis, Debye):
    X=              0.0000    Y=              0.0000    Z=              0.0087  Tot=              0.0087
 Quadrupole moment (field-independent basis, Debye-Ang):
   XX=           -188.9635   YY=           -188.9635   ZZ=           -189.2389
   XY=              0.0000   XZ=              0.0000   YZ=              0.0000
 Traceless Quadrupole moment (field-independent basis, Debye-Ang):
   XX=              0.0918   YY=              0.0918   ZZ=             -0.1836
   XY=              0.0000   XZ=              0.0000   YZ=              0.0000
 Octapole moment (field-independent basis, Debye-Ang**2):
  XXX=              0.0000  YYY=              0.0000  ZZZ=              0.1495  XYY=              0.0000
  XXY=              0.0000  XXZ=              0.0522  XZZ=              0.0000  YZZ=              0.0000
  YYZ=              0.0522  XYZ=              0.0000
 Hexadecapole moment (field-independent basis, Debye-Ang**3):
 XXXX=          -1944.5237 YYYY=          -1944.5237 ZZZZ=          -2490.1844 XXXY=              0.0000
 XXXZ=              0.0000 YYYX=              0.0000 YYYZ=              0.0000 ZZZX=              0.0000
 ZZZY=              0.0000 XXYY=           -609.7429 XXZZ=           -797.1010 YYZZ=           -797.1010
 XXYZ=              0.0000 YYXZ=              0.0000 ZZXY=              0.0000
 N-N= 1.918377803144D+03 E-N=-1.295885163853D+04  KE= 3.725692386691D+03
 Symmetry A1   KE= 1.674470129918D+03
 Symmetry A2   KE= 1.860670956595D+02
 Symmetry B1   KE= 9.325775805566D+02
 Symmetry B2   KE= 9.325775805566D+02
 Orbital energies and kinetic energies (alpha):
                                 1                 2
   1         (E)--O         -101.243806        137.057259
   2         (E)--O         -101.243806        137.057259
   3         (B2)--O        -101.243797        137.058566
   4         (A1)--O        -101.243795        137.059147
   5         (E)--O         -101.243759        137.059877
   6         (E)--O         -101.243759        137.059877
   7         (A1)--O        -101.243755        137.060137
   8         (B2)--O        -101.243745        137.062110
   9         (E)--O           -9.176990         21.696307
  10         (E)--O           -9.176990         21.696307
  11         (B2)--O          -9.176967         21.699166
  12         (A1)--O          -9.176947         21.702696
  13         (E)--O           -9.176900         21.705197
  14         (E)--O           -9.176900         21.705197
  15         (A1)--O          -9.176886         21.706231
  16         (B2)--O          -9.176856         21.711153
  17         (B2)--O          -6.936902         20.522474
  18         (A1)--O          -6.936858         20.534740
  19         (E)--O           -6.936855         20.533764
  20         (E)--O           -6.936855         20.533764
  21         (A1)--O          -6.936814         20.534853
  22         (E)--O           -6.936811         20.534135
  23         (E)--O           -6.936811         20.534135
  24         (B2)--O          -6.936804         20.536510
  25         (B2)--O          -6.932113         20.541815
  26         (A1)--O          -6.932107         20.543302
  27         (E)--O           -6.932101         20.543773
  28         (E)--O           -6.932101         20.543773
  29         (B2)--O          -6.932062         20.545301
  30         (A1)--O          -6.932061         20.545079
  31         (E)--O           -6.932047         20.547909
  32         (E)--O           -6.932047         20.547909
  33         (A2)--O          -6.931409         20.543443
  34         (E)--O           -6.931409         20.544843
  35         (E)--O           -6.931409         20.544843
  36         (B1)--O          -6.931387         20.549430
  37         (E)--O           -6.931359         20.545653
  38         (E)--O           -6.931359         20.545653
  39         (A2)--O          -6.931358         20.544899
  40         (B1)--O          -6.931335         20.550657
  41         (A1)--O          -3.045804          1.413993
  42         (A1)--O          -3.036897          1.455319
  43         (A1)--O          -1.669557          1.869851
  44         (E)--O           -1.639957          1.953827
  45         (E)--O           -1.639957          1.953827
  46         (E)--O           -1.630040          1.988560
  47         (E)--O           -1.630040          1.988560
  48         (A1)--O          -1.597187          2.092556
  49         (A1)--O          -0.560709          2.834475
  50         (A1)--O          -0.551250          2.954312
  51         (B2)--O          -0.535984          3.106747
  52         (E)--O           -0.533450          3.104840
  53         (E)--O           -0.533450          3.104840
  54         (B2)--O          -0.527902          3.197905
  55         (E)--O           -0.526501          3.179817
  56         (E)--O           -0.526501          3.179817
  57         (A1)--O          -0.172509          1.958466
  58         (B2)--O          -0.161735          2.128061
  59         (A1)--O          -0.153475          2.106430
  60         (B2)--O          -0.145470          2.218159
  61         (B1)--O          -0.144919          1.679917
  62         (E)--O           -0.144441          1.745353
  63         (E)--O           -0.144441          1.745353
  64         (B1)--O          -0.124240          1.844542
  65         (A1)--O          -0.121741          1.707341
  66         (E)--O           -0.107994          2.182611
  67         (E)--O           -0.107994          2.182611
  68         (E)--O           -0.097749          2.093218
  69         (E)--O           -0.097749          2.093218
  70         (A1)--O          -0.077386          1.900142
  71         (A1)--O          -0.064676          2.097960
  72         (B2)--O          -0.059756          2.252110
  73         (E)--O           -0.048686          2.310179
  74         (E)--O           -0.048686          2.310179
  75         (E)--O           -0.042536          2.393286
  76         (E)--O           -0.042536          2.393286
  77         (E)--O           -0.037818          2.415110
  78         (E)--O           -0.037818          2.415110
  79         (B2)--O          -0.020207          2.577958
  80         (A2)--O          -0.017824          2.564929
  81         (A2)--O          -0.011441          2.637697
  82         (E)--O            0.003302          2.153272
  83         (E)--O            0.003302          2.153272
  84         (B1)--O           0.048575          2.118033
  85         (B1)--V           0.108737          2.175302
  86         (E)--V            0.177022          2.375703
  87         (E)--V            0.177022          2.375703
  88         (A1)--V           0.179758          2.025453
  89         (B2)--V           0.216735          2.562585
  90         (B2)--V           0.236850          2.620090
  91         (A1)--V           0.240151          0.354912
  92         (A1)--V           0.249235          0.857620
  93         (A1)--V           0.270500          1.199213
  94         (E)--V            0.271575          0.388219
  95         (E)--V            0.271575          0.388219
  96         (E)--V            0.272656          0.467170
  97         (E)--V            0.272656          0.467170
  98         (A1)--V           0.356451          1.090657
  99         (A1)--V           0.395274          1.917036
 100         (E)--V            0.469611          1.512440
 101         (E)--V            0.469611          1.512440
 102         (A1)--V           0.572758          2.413302
 103         (E)--V            0.576197          1.465740
 104         (E)--V            0.576197          1.465740
 105         (A1)--V           0.608151          1.891455
 106         (B2)--V           0.608508          2.561779
 107         (B2)--V           0.609384          2.302759
 108         (B1)--V           0.637542          1.659977
 109         (B1)--V           0.642115          1.917246
 110         (B1)--V           0.665313          2.878827
 111         (E)--V            0.667375          2.237643
 112         (E)--V            0.667375          2.237643
 113         (B2)--V           0.700384          2.491233
 114         (E)--V            0.704692          2.864734
 115         (E)--V            0.704692          2.864734
 116         (E)--V            0.718786          1.670226
 117         (E)--V            0.718786          1.670226
 118         (A1)--V           0.738360          2.811606
 119         (A1)--V           0.742581          2.227472
 120         (E)--V            0.750259          3.040574
 121         (E)--V            0.750259          3.040574
 122         (B1)--V           0.753732          2.766593
 123         (E)--V            0.756412          2.477620
 124         (E)--V            0.756412          2.477620
 125         (A1)--V           0.785566          3.039923
 126         (E)--V            0.787481          2.750065
 127         (E)--V            0.787481          2.750065
 128         (A2)--V           0.798915          2.685598
 129         (A1)--V           0.812861          2.704300
 130         (E)--V            0.825295          2.788998
 131         (E)--V            0.825295          2.788998
 132         (B2)--V           0.829602          2.329902
 133         (B2)--V           0.832964          2.703357
 134         (A2)--V           0.855182          2.738204
 135         (E)--V            0.865330          2.832888
 136         (E)--V            0.865330          2.832888
 137         (A1)--V           0.867760          2.779320
 138         (B2)--V           0.893335          2.886013
 139         (E)--V            0.906785          2.657498
 140         (E)--V            0.906785          2.657498
 141         (B2)--V           0.914352          2.677390
 142         (A1)--V           0.965538          2.512153
 143         (E)--V            1.071426          2.827488
 144         (E)--V            1.071426          2.827488
 145         (B2)--V           1.132576          2.641717
 146         (A2)--V           1.139523          2.630716
 147         (E)--V            1.139709          2.660673
 148         (E)--V            1.139709          2.660673
 149         (B1)--V           1.142140          2.625818
 150         (B2)--V           1.142712          2.649864
 151         (A2)--V           1.143960          2.626028
 152         (B1)--V           1.146450          2.631257
 153         (E)--V            1.146676          2.644620
 154         (E)--V            1.146676          2.644620
 155         (E)--V            1.149293          2.650488
 156         (E)--V            1.149293          2.650488
 157         (A1)--V           1.173831          2.750456
 158         (A1)--V           1.176877          2.676544
 159         (B2)--V           1.178982          2.837420
 160         (E)--V            1.178990          2.737746
 161         (E)--V            1.178990          2.737746
 162         (A2)--V           1.181381          2.755176
 163         (E)--V            1.193233          2.805527
 164         (E)--V            1.193233          2.805527
 165         (A1)--V           1.196162          2.727981
 166         (A2)--V           1.197527          2.834172
 167         (E)--V            1.211376          3.195753
 168         (E)--V            1.211376          3.195753
 169         (A1)--V           1.240904          2.796882
 170         (B2)--V           1.264425          2.991023
 171         (E)--V            1.297308          2.874768
 172         (E)--V            1.297308          2.874768
 173         (B1)--V           1.333873          2.728133
 174         (A1)--V           1.371591          2.879530
 175         (B2)--V           1.379347          3.808069
 176         (B2)--V           1.423559          2.827066
 177         (A1)--V           1.434439          2.919241
 178         (E)--V            1.438831          2.836053
 179         (E)--V            1.438831          2.836053
 180         (E)--V            1.442731          2.781107
 181         (E)--V            1.442731          2.781107
 182         (A1)--V           1.480672          2.817862
 183         (B1)--V           1.532467          2.940719
 184         (E)--V            1.628288          3.166289
 185         (E)--V            1.628288          3.166289
 186         (B2)--V           1.826236          3.754200
 187         (A1)--V          10.688249          2.463003
 188         (A1)--V          20.863590          3.829354
 Total kinetic energy from orbitals= 3.725692386691D+03
 No NMR shielding tensors so no spin-rotation constants.
 Leave Link  601 at Tue May  5 12:47:23 2015, MaxMem= 1073741824 cpu:       2.6
 (Enter /usr/g09/l9999.exe)
 1\1\GINC-LSQC07\SP\RB3LYP\GenECP\Cl8Re2(2-)\LITAO\05-May-2015\0\\#p b3
 lyp/genecp pop=full\\Title Card Required\\-2,1\Re,0,0.,0.,0.\Re,0,0.,0
 .,2.24015797\Cl,0,1.57,1.57,2.782\Cl,0,1.57,-1.57,2.782\Cl,0,-1.57,1.5
 7,2.782\Cl,0,-1.57,-1.57,2.782\Cl,0,1.57,1.57,-0.54\Cl,0,1.57,-1.57,-0
 .54\Cl,0,-1.57,1.57,-0.54\Cl,0,-1.57,-1.57,-0.54\\Version=EM64L-G09Rev
 A.01\State=1-A1\HF=-3840.1347514\RMSD=4.214e-09\Dipole=0.,0.,-0.003414
 9\Quadrupole=0.0682646,0.0682646,-0.1365291,0.,0.,0.\PG=C04V [C4(Re1Re
 1),2SGV(Cl4)]\\@


 LIFE IS SO UNCERTAIN - EAT DESSERT FIRST.
 Job cpu time:  0 days  0 hours  1 minutes 25.1 seconds.
 File lengths (MBytes):  RWF=     19 Int=      0 D2E=      0 Chk=      2 Scr=      1
 Normal termination of Gaussian 09 at Tue May  5 12:47:23 2015.
