 Entering Gaussian System, Link 0=g09
 Input=tc2cl8-stable.gjf
 Output=tc2cl8-stable.log
 Initial command:
 /usr/g09/l1.exe /scratch/litao/gaussian/Gau-2632.inp -scrdir=/scratch/litao/gaussian/
 Entering Link 1 = /usr/g09/l1.exe PID=      2633.
  
 Copyright (c) 1988,1990,1992,1993,1995,1998,2003,2009, Gaussian, Inc.
                  All Rights Reserved.
  
 This is part of the Gaussian(R) 09 program.  It is based on
 the Gaussian(R) 03 system (copyright 2003, Gaussian, Inc.),
 the Gaussian(R) 98 system (copyright 1998, Gaussian, Inc.),
 the Gaussian(R) 94 system (copyright 1995, Gaussian, Inc.),
 the Gaussian 92(TM) system (copyright 1992, Gaussian, Inc.),
 the Gaussian 90(TM) system (copyright 1990, Gaussian, Inc.),
 the Gaussian 88(TM) system (copyright 1988, Gaussian, Inc.),
 the Gaussian 86(TM) system (copyright 1986, Carnegie Mellon
 University), and the Gaussian 82(TM) system (copyright 1983,
 Carnegie Mellon University). Gaussian is a federally registered
 trademark of Gaussian, Inc.
  
 This software contains proprietary and confidential information,
 including trade secrets, belonging to Gaussian, Inc.
  
 This software is provided under written license and may be
 used, copied, transmitted, or stored only in accord with that
 written license.
  
 The following legend is applicable only to US Government
 contracts under FAR:
  
                    RESTRICTED RIGHTS LEGEND
  
 Use, reproduction and disclosure by the US Government is
 subject to restrictions as set forth in subparagraphs (a)
 and (c) of the Commercial Computer Software - Restricted
 Rights clause in FAR 52.227-19.
  
 Gaussian, Inc.
 340 Quinnipiac St., Bldg. 40, Wallingford CT 06492
  
  
 ---------------------------------------------------------------
 Warning -- This program may not be used in any manner that
 competes with the business of Gaussian, Inc. or will provide
 assistance to any competitor of Gaussian, Inc.  The licensee
 of this program is prohibited from giving any competitor of
 Gaussian, Inc. access to this program.  By using this program,
 the user acknowledges that Gaussian, Inc. is engaged in the
 business of creating and licensing software in the field of
 computational chemistry and represents and warrants to the
 licensee that it is not a competitor of Gaussian, Inc. and that
 it will not use this program in any manner prohibited above.
 ---------------------------------------------------------------
  

 Cite this work as:
 Gaussian 09, Revision A.01,
 M. J. Frisch, G. W. Trucks, H. B. Schlegel, G. E. Scuseria, 
 M. A. Robb, J. R. Cheeseman, G. Scalmani, V. Barone, B. Mennucci, 
 G. A. Petersson, H. Nakatsuji, M. Caricato, X. Li, H. P. Hratchian, 
 A. F. Izmaylov, J. Bloino, G. Zheng, J. L. Sonnenberg, M. Hada, 
 M. Ehara, K. Toyota, R. Fukuda, J. Hasegawa, M. Ishida, T. Nakajima, 
 Y. Honda, O. Kitao, H. Nakai, T. Vreven, J. A. Montgomery, Jr., 
 J. E. Peralta, F. Ogliaro, M. Bearpark, J. J. Heyd, E. Brothers, 
 K. N. Kudin, V. N. Staroverov, R. Kobayashi, J. Normand, 
 K. Raghavachari, A. Rendell, J. C. Burant, S. S. Iyengar, J. Tomasi, 
 M. Cossi, N. Rega, J. M. Millam, M. Klene, J. E. Knox, J. B. Cross, 
 V. Bakken, C. Adamo, J. Jaramillo, R. Gomperts, R. E. Stratmann, 
 O. Yazyev, A. J. Austin, R. Cammi, C. Pomelli, J. W. Ochterski, 
 R. L. Martin, K. Morokuma, V. G. Zakrzewski, G. A. Voth, 
 P. Salvador, J. J. Dannenberg, S. Dapprich, A. D. Daniels, 
 O. Farkas, J. B. Foresman, J. V. Ortiz, J. Cioslowski, 
 and D. J. Fox, Gaussian, Inc., Wallingford CT, 2009.
 
 ******************************************
 Gaussian 09:  EM64L-G09RevA.01  8-May-2009
                 5-May-2015 
 ******************************************
 %nprocshared=8
 Will use up to    8 processors via shared memory.
 %mem=8GB
 %chk=tc2cl8-stable.chk
 ------------------------
 #p b3lyp/genecp pop=full
 ------------------------
 1/38=1/1;
 2/12=2,17=6,18=5,40=1/2;
 3/5=7,11=2,16=1,17=8,25=1,30=1,74=-5/1,2,3;
 4//1;
 5/5=2,38=5/2;
 6/7=3,28=1/1;
 99/5=1,9=1/99;
 Leave Link    1 at Tue May  5 12:47:40 2015, MaxMem= 1073741824 cpu:       0.1
 (Enter /usr/g09/l101.exe)
 -------------------
 Title Card Required
 -------------------
 Symbolic Z-matrix:
 Charge = -2 Multiplicity = 1
 Tc                    0.        0.        0. 
 Tc                    0.        0.        2.24016 
 Cl                    1.57      1.57      2.782 
 Cl                    1.57     -1.57      2.782 
 Cl                   -1.57      1.57      2.782 
 Cl                   -1.57     -1.57      2.782 
 Cl                    1.57      1.57     -0.54 
 Cl                    1.57     -1.57     -0.54 
 Cl                   -1.57      1.57     -0.54 
 Cl                   -1.57     -1.57     -0.54 
 
 NAtoms=     10 NQM=     10 NQMF=      0 NMic=      0 NMicF=      0 NTot=     10.
                    Isotopes and Nuclear Properties:
 (Nuclear quadrupole moments (NQMom) in fm**2, nuclear magnetic moments (NMagM)
  in nuclear magnetons)

  Atom         1           2           3           4           5           6           7           8           9          10
 IAtWgt=          99          99          35          35          35          35          35          35          35          35
 AtmWgt=  98.9063000  98.9063000  34.9688527  34.9688527  34.9688527  34.9688527  34.9688527  34.9688527  34.9688527  34.9688527
 NucSpn=           0           0           3           3           3           3           3           3           3           3
 AtZEff=   0.0000000   0.0000000   0.0000000   0.0000000   0.0000000   0.0000000   0.0000000   0.0000000   0.0000000   0.0000000
 NQMom=    0.0000000   0.0000000  -8.1650000  -8.1650000  -8.1650000  -8.1650000  -8.1650000  -8.1650000  -8.1650000  -8.1650000
 NMagM=    0.0000000   0.0000000   0.8218740   0.8218740   0.8218740   0.8218740   0.8218740   0.8218740   0.8218740   0.8218740
 Leave Link  101 at Tue May  5 12:47:40 2015, MaxMem= 1073741824 cpu:       0.1
 (Enter /usr/g09/l202.exe)
                          Input orientation:                          
 ---------------------------------------------------------------------
 Center     Atomic      Atomic             Coordinates (Angstroms)
 Number     Number       Type             X           Y           Z
 ---------------------------------------------------------------------
      1         43           0        0.000000    0.000000    0.000000
      2         43           0        0.000000    0.000000    2.240158
      3         17           0        1.570000    1.570000    2.782000
      4         17           0        1.570000   -1.570000    2.782000
      5         17           0       -1.570000    1.570000    2.782000
      6         17           0       -1.570000   -1.570000    2.782000
      7         17           0        1.570000    1.570000   -0.540000
      8         17           0        1.570000   -1.570000   -0.540000
      9         17           0       -1.570000    1.570000   -0.540000
     10         17           0       -1.570000   -1.570000   -0.540000
 ---------------------------------------------------------------------
                    Distance matrix (angstroms):
                    1          2          3          4          5
     1  Tc   0.000000
     2  Tc   2.240158   0.000000
     3  Cl   3.559399   2.285474   0.000000
     4  Cl   3.559399   2.285474   3.140000   0.000000
     5  Cl   3.559399   2.285474   3.140000   4.440631   0.000000
     6  Cl   3.559399   2.285474   4.440631   3.140000   3.140000
     7  Cl   2.285038   3.557960   3.322000   4.571136   4.571136
     8  Cl   2.285038   3.557960   4.571136   3.322000   5.545709
     9  Cl   2.285038   3.557960   4.571136   5.545709   3.322000
    10  Cl   2.285038   3.557960   5.545709   4.571136   4.571136
                    6          7          8          9         10
     6  Cl   0.000000
     7  Cl   5.545709   0.000000
     8  Cl   4.571136   3.140000   0.000000
     9  Cl   4.571136   3.140000   4.440631   0.000000
    10  Cl   3.322000   4.440631   3.140000   3.140000   0.000000
 Stoichiometry    Cl8Tc2(2-)
 Framework group  C4V[C4(TcTc),2SGV(Cl4)]
 Deg. of freedom     5
 Full point group                 C4V     NOp   8
 Largest Abelian subgroup         C2V     NOp   4
 Largest concise Abelian subgroup C2V     NOp   4
                         Standard orientation:                         
 ---------------------------------------------------------------------
 Center     Atomic      Atomic             Coordinates (Angstroms)
 Number     Number       Type             X           Y           Z
 ---------------------------------------------------------------------
      1         43           0        0.000000    0.000000    1.120643
      2         43           0        0.000000    0.000000   -1.119515
      3         17           0        0.000000    2.220315   -1.661357
      4         17           0       -2.220315    0.000000   -1.661357
      5         17           0        2.220315    0.000000   -1.661357
      6         17           0        0.000000   -2.220315   -1.661357
      7         17           0        0.000000    2.220315    1.660643
      8         17           0       -2.220315    0.000000    1.660643
      9         17           0        2.220315    0.000000    1.660643
     10         17           0        0.000000   -2.220315    1.660643
 ---------------------------------------------------------------------
 Rotational constants (GHZ):      0.3664515      0.2956229      0.2956229
 Leave Link  202 at Tue May  5 12:47:40 2015, MaxMem= 1073741824 cpu:       0.0
 (Enter /usr/g09/l301.exe)
 General basis read from cards:  (5D, 7F)
 Centers:   3  4  5  6  7  8  9 10
 6-31g**
 ****
 Centers:   1  2
 LanL2DZ
 ****
 Ernie: Thresh=  0.10000D-02 Tol=  0.10000D-05 Strict=F.
 Ernie:  2 primitive shells out of 172 were deleted.
 ======================================================================================================
                                       Pseudopotential Parameters
 ======================================================================================================
  Center     Atomic      Valence      Angular      Power
  Number     Number     Electrons     Momentum     of R      Exponent        Coefficient   SO-Coeffient
 ======================================================================================================
    1         43           15
                                      F and up 
                                                     0      501.1199409       -0.04921150    0.00000000
                                                     1      150.2468844      -20.14673080    0.00000000
                                                     2       46.7097914     -105.57928800    0.00000000
                                                     2       13.9339014      -41.59011970    0.00000000
                                                     2        4.9854069       -3.94151110    0.00000000
                                      S - F
                                                     0      108.1775995        2.82223740    0.00000000
                                                     1       23.6594351       46.73307080    0.00000000
                                                     2        5.7814977       90.53186570    0.00000000
                                      P - F
                                                     0       63.3062014        4.93907820    0.00000000
                                                     1       23.6935532       26.92296310    0.00000000
                                                     2       25.0525854      128.50797960    0.00000000
                                                     2        5.0717084       63.74902500    0.00000000
                                      D - F
                                                     0      102.7721397        2.99219020    0.00000000
                                                     1       45.6713756       28.18213790    0.00000000
                                                     2       48.2611997       89.05484650    0.00000000
                                                     2       15.7089115      121.18943250    0.00000000
                                                     2        3.9484576       25.58669730    0.00000000
    2         43           15
                                      F and up 
                                                     0      501.1199409       -0.04921150    0.00000000
                                                     1      150.2468844      -20.14673080    0.00000000
                                                     2       46.7097914     -105.57928800    0.00000000
                                                     2       13.9339014      -41.59011970    0.00000000
                                                     2        4.9854069       -3.94151110    0.00000000
                                      S - F
                                                     0      108.1775995        2.82223740    0.00000000
                                                     1       23.6594351       46.73307080    0.00000000
                                                     2        5.7814977       90.53186570    0.00000000
                                      P - F
                                                     0       63.3062014        4.93907820    0.00000000
                                                     1       23.6935532       26.92296310    0.00000000
                                                     2       25.0525854      128.50797960    0.00000000
                                                     2        5.0717084       63.74902500    0.00000000
                                      D - F
                                                     0      102.7721397        2.99219020    0.00000000
                                                     1       45.6713756       28.18213790    0.00000000
                                                     2       48.2611997       89.05484650    0.00000000
                                                     2       15.7089115      121.18943250    0.00000000
                                                     2        3.9484576       25.58669730    0.00000000
    3         17
                                   No pseudopotential on this center.
    4         17
                                   No pseudopotential on this center.
    5         17
                                   No pseudopotential on this center.
    6         17
                                   No pseudopotential on this center.
    7         17
                                   No pseudopotential on this center.
    8         17
                                   No pseudopotential on this center.
    9         17
                                   No pseudopotential on this center.
   10         17
                                   No pseudopotential on this center.
 ======================================================================================================
 There are    72 symmetry adapted basis functions of A1  symmetry.
 There are    24 symmetry adapted basis functions of A2  symmetry.
 There are    46 symmetry adapted basis functions of B1  symmetry.
 There are    46 symmetry adapted basis functions of B2  symmetry.
 Integral buffers will be    131072 words long.
 Raffenetti 2 integral format.
 Two-electron integral symmetry is turned on.
   188 basis functions,   514 primitive gaussians,   200 cartesian basis functions
    84 alpha electrons       84 beta electrons
       nuclear repulsion energy      1918.3778031440 Hartrees.
 IExCor=  402 DFT=T Ex+Corr=B3LYP ExCW=0 ScaHFX=  0.200000
 ScaDFX=  0.800000  0.720000  1.000000  0.810000 ScalE2=  1.000000  1.000000
 IRadAn=      0 IRanWt=     -1 IRanGd=            0 ICorTp=0
 NAtoms=   10 NActive=   10 NUniq=    4 SFac= 3.00D+00 NAtFMM=   80 NAOKFM=F Big=F
 Leave Link  301 at Tue May  5 12:47:40 2015, MaxMem= 1073741824 cpu:       0.2
 (Enter /usr/g09/l302.exe)
 NPDir=0 NMtPBC=     1 NCelOv=     1 NCel=       1 NClECP=     1 NCelD=      1
         NCelK=      1 NCelE2=     1 NClLst=     1 CellRange=     0.0.
 One-electron integrals computed using PRISM.
 One-electron integral symmetry used in STVInt
   8 Symmetry operations used in ECPInt.
 ECPInt:  NShTT=    1596 NPrTT=   14825 LenC2=    1481 LenP2D=    8893.
 LDataN:  DoStor=T MaxTD1= 5 Len=  102
 NBasis=   188 RedAO= T  NBF=    72    24    46    46
 NBsUse=   188 1.00D-06 NBFU=    72    24    46    46
 Precomputing XC quadrature grid using
 IXCGrd= 2 IRadAn=           0 IRanWt=          -1 IRanGd=           0 AccXCQ= 1.00D-10.
 Defaulting to unpruned grid for atomic number  43.
 NRdTot=     630 NPtTot=       99784 NUsed=      104337 NTot=      104369
 NSgBfM=   196   196   196   196   196 NAtAll=    10    10.
 Leave Link  302 at Tue May  5 12:47:40 2015, MaxMem= 1073741824 cpu:       2.1
 (Enter /usr/g09/l303.exe)
 DipDrv:  MaxL=1.
 Leave Link  303 at Tue May  5 12:47:40 2015, MaxMem= 1073741824 cpu:       0.1
 (Enter /usr/g09/l401.exe)
 Harris functional with IExCor=  402 diagonalized for initial guess.
 ExpMin= 2.46D-02 ExpMax= 2.52D+04 ExpMxC= 3.78D+03 IAcc=3 IRadAn=         0 AccDes= 0.00D+00
 HarFok:  IExCor=  402 AccDes= 0.00D+00 IRadAn=         0 IDoV= 1
 ScaDFX=  1.000000  1.000000  1.000000  1.000000
 Defaulting to unpruned grid for atomic number  43.
 Defaulting to unpruned grid for atomic number  43.
 Defaulting to unpruned grid for atomic number  43.
 Defaulting to unpruned grid for atomic number  43.
 Defaulting to unpruned grid for atomic number  43.
 Defaulting to unpruned grid for atomic number  43.
 Defaulting to unpruned grid for atomic number  43.
 Defaulting to unpruned grid for atomic number  43.
 FoFCou: FMM=F IPFlag=           0 FMFlag=      100000 FMFlg1=           0
         NFxFlg=           0 DoJE=T BraDBF=F KetDBF=T FulRan=T
         Omega=  0.000000  0.000000  1.000000  0.000000  0.000000 ICntrl=     500 IOpCl=  0
         NMat0=    1 NMatS0=    1 NMatT0=    0 NMatD0=    1 NMtDS0=    0 NMtDT0=    0
         I1Cent=           4 NGrid=           0.
 Petite list used in FoFCou.
 Harris En= -3848.98952379012    
 Initial guess orbital symmetries:
       Occupied  (E) (E) (B2) (A1) (E) (E) (A1) (B2) (E) (E) (B2)
                 (A1) (E) (E) (A1) (B2) (B2) (E) (E) (A1) (E) (E)
                 (A1) (B2) (B2) (A1) (E) (E) (A2) (B2) (A1) (E)
                 (E) (E) (E) (B1) (A2) (E) (E) (B1) (A1) (A1) (A1)
                 (E) (E) (E) (E) (A1) (A1) (A1) (B2) (E) (E) (B2)
                 (E) (E) (A1) (B1) (B2) (B1) (A1) (E) (E) (A1)
                 (B2) (E) (E) (E) (E) (B2) (A1) (E) (E) (E) (E)
                 (E) (E) (B2) (A2) (A2) (E) (E) (A1) (B1)
       Virtual   (B1) (A1) (B2) (E) (E) (A1) (B2) (A1) (E) (E)
                 (A1) (E) (E) (A1) (A1) (E) (E) (A1) (E) (E) (A1)
                 (B2) (B1) (B2) (B1) (E) (E) (B2) (B1) (E) (E)
                 (A1) (A1) (E) (E) (E) (E) (B1) (E) (E) (E) (E)
                 (A2) (A1) (B2) (E) (E) (B2) (A1) (A2) (E) (E)
                 (E) (E) (A1) (B2) (B2) (A1) (A1) (E) (E) (B2)
                 (A2) (B1) (A2) (E) (E) (B1) (B2) (E) (E) (E) (E)
                 (A1) (A1) (E) (E) (B2) (A2) (E) (E) (A2) (E) (E)
                 (A1) (B2) (A1) (A1) (E) (E) (B1) (B2) (B2) (E)
                 (E) (E) (E) (A1) (B1) (E) (E) (B2) (A1) (A1)
 The electronic state of the initial guess is 1-A1.
 Leave Link  401 at Tue May  5 12:47:41 2015, MaxMem= 1073741824 cpu:       1.7
 (Enter /usr/g09/l502.exe)
 Closed shell SCF:
 Requested convergence on RMS density matrix=1.00D-08 within 128 cycles.
 Requested convergence on MAX density matrix=1.00D-06.
 Requested convergence on             energy=1.00D-06.
 No special actions if energy rises.
 Using DIIS extrapolation, IDIIS=  1040.
 Integral symmetry usage will be decided dynamically.
       104234 words used for storage of precomputed grid.
 Keep R1 ints in memory in canonical form, NReq=206321664.
 IEnd=      246400 IEndB=      246400 NGot=  1073741824 MDV=   871537187
 LenX=   871537187 LenY=   871496746
 Symmetry not used in FoFDir.
 MinBra= 0 MaxBra= 2 Meth= 1.
 IRaf=       0 NMat=   1 IRICut=       1 DoRegI=T DoRafI=F ISym2E= 0 JSym2E=0.

 Cycle   1  Pass 1  IDiag  1:
 Defaulting to unpruned grid for atomic number  43.
 Defaulting to unpruned grid for atomic number  43.
 Defaulting to unpruned grid for atomic number  43.
 Defaulting to unpruned grid for atomic number  43.
 Defaulting to unpruned grid for atomic number  43.
 Defaulting to unpruned grid for atomic number  43.
 Defaulting to unpruned grid for atomic number  43.
 Defaulting to unpruned grid for atomic number  43.
 E= -3840.37398684871    
 DIIS: error= 1.24D-01 at cycle   1 NSaved=   1.
 NSaved= 1 IEnMin= 1 EnMin= -3840.37398684871     IErMin= 1 ErrMin= 1.24D-01
 ErrMax= 1.24D-01 EMaxC= 1.00D-01 BMatC= 1.81D+00 BMatP= 1.81D+00
 IDIUse=3 WtCom= 0.00D+00 WtEn= 1.00D+00
 Coeff-Com:  0.100D+01
 Coeff-En:   0.100D+01
 Coeff:      0.100D+01
 Gap=    -0.031 Goal=   None    Shift=    0.000
 GapD=   -0.031 DampG=0.250 DampE=0.125 DampFc=0.1250 IDamp=-1.
 Damping current iteration by 1.25D-01
 RMSDP=2.53D-02 MaxDP=8.92D-01              OVMax= 9.13D-01

 Cycle   2  Pass 1  IDiag  1:
 Density matrix breaks symmetry, PCut= 1.00D-04
 Density has only Abelian symmetry.
 E= -3840.97332355559     Delta-E=       -0.599336706880 Rises=F Damp=T
 DIIS: error= 8.42D-02 at cycle   2 NSaved=   2.
 NSaved= 2 IEnMin= 2 EnMin= -3840.97332355559     IErMin= 2 ErrMin= 8.42D-02
 ErrMax= 8.42D-02 EMaxC= 1.00D-01 BMatC= 6.59D-01 BMatP= 1.81D+00
 IDIUse=3 WtCom= 1.58D-01 WtEn= 8.42D-01
 Coeff-Com: -0.114D+01 0.214D+01
 Coeff-En:   0.000D+00 0.100D+01
 Coeff:     -0.180D+00 0.118D+01
 Gap=     0.000 Goal=   None    Shift=    0.000
 RMSDP=1.39D-02 MaxDP=5.70D-01 DE=-5.99D-01 OVMax= 9.91D-01

 Cycle   3  Pass 1  IDiag  1:
 Density matrix breaks symmetry, PCut= 1.00D-04
 Density has only Abelian symmetry.
 E= -3837.51848343083     Delta-E=        3.454840124766 Rises=F Damp=F
 DIIS: error= 2.23D-01 at cycle   3 NSaved=   3.
 NSaved= 3 IEnMin= 2 EnMin= -3840.97332355559     IErMin= 2 ErrMin= 8.42D-02
 ErrMax= 2.23D-01 EMaxC= 1.00D-01 BMatC= 4.04D+00 BMatP= 6.59D-01
 IDIUse=2 WtCom= 0.00D+00 WtEn= 1.00D+00
 EnCoef did   100 forward-backward iterations
 Coeff-En:   0.637D+00 0.313D-01 0.331D+00
 Coeff:      0.637D+00 0.313D-01 0.331D+00
 Gap=     0.010 Goal=   None    Shift=    0.000
 RMSDP=1.08D-02 MaxDP=4.37D-01 DE= 3.45D+00 OVMax= 9.84D-01

 Cycle   4  Pass 1  IDiag  1:
 Density matrix breaks symmetry, PCut= 1.00D-04
 Density has only Abelian symmetry.
 E= -3842.03522993299     Delta-E=       -4.516746502169 Rises=F Damp=F
 DIIS: error= 7.53D-03 at cycle   4 NSaved=   4.
 NSaved= 4 IEnMin= 4 EnMin= -3842.03522993299     IErMin= 4 ErrMin= 7.53D-03
 ErrMax= 7.53D-03 EMaxC= 1.00D-01 BMatC= 2.03D-02 BMatP= 6.59D-01
 IDIUse=3 WtCom= 9.25D-01 WtEn= 7.53D-02
 Coeff-Com: -0.258D+00 0.460D+00-0.180D-02 0.800D+00
 Coeff-En:   0.000D+00 0.000D+00 0.000D+00 0.100D+01
 Coeff:     -0.239D+00 0.425D+00-0.166D-02 0.815D+00
 Gap=     0.057 Goal=   None    Shift=    0.000
 RMSDP=2.46D-03 MaxDP=6.94D-02 DE=-4.52D+00 OVMax= 1.34D-01

 Cycle   5  Pass 1  IDiag  1:
 Density matrix breaks symmetry, PCut= 1.00D-04
 Density has only Abelian symmetry.
 E= -3842.01541667436     Delta-E=        0.019813258635 Rises=F Damp=F
 DIIS: error= 2.32D-02 at cycle   5 NSaved=   5.
 NSaved= 5 IEnMin= 4 EnMin= -3842.03522993299     IErMin= 4 ErrMin= 7.53D-03
 ErrMax= 2.32D-02 EMaxC= 1.00D-01 BMatC= 4.25D-02 BMatP= 2.03D-02
 IDIUse=2 WtCom= 0.00D+00 WtEn= 1.00D+00
 Coeff-En:   0.000D+00 0.000D+00 0.000D+00 0.668D+00 0.332D+00
 Coeff:      0.000D+00 0.000D+00 0.000D+00 0.668D+00 0.332D+00
 Gap=     0.047 Goal=   None    Shift=    0.000
 RMSDP=3.33D-03 MaxDP=2.25D-01 DE= 1.98D-02 OVMax= 2.72D-01

 Cycle   6  Pass 1  IDiag  1:
 Density matrix breaks symmetry, PCut= 1.00D-04
 Density has only Abelian symmetry.
 E= -3841.80803565614     Delta-E=        0.207381018220 Rises=F Damp=F
 DIIS: error= 7.40D-02 at cycle   6 NSaved=   6.
 NSaved= 6 IEnMin= 4 EnMin= -3842.03522993299     IErMin= 4 ErrMin= 7.53D-03
 ErrMax= 7.40D-02 EMaxC= 1.00D-01 BMatC= 2.82D-01 BMatP= 2.03D-02
 IDIUse=2 WtCom= 0.00D+00 WtEn= 1.00D+00
 EnCoef did     4 forward-backward iterations
 Coeff-En:   0.000D+00 0.000D+00 0.000D+00 0.463D+00 0.414D+00 0.123D+00
 Coeff:      0.000D+00 0.000D+00 0.000D+00 0.463D+00 0.414D+00 0.123D+00
 Gap=     0.046 Goal=   None    Shift=    0.000
 RMSDP=2.57D-03 MaxDP=1.83D-01 DE= 2.07D-01 OVMax= 2.73D-01

 Cycle   7  Pass 1  IDiag  1:
 Density matrix breaks symmetry, PCut= 1.00D-04
 Density has only Abelian symmetry.
 E= -3842.03071342812     Delta-E=       -0.222677771975 Rises=F Damp=F
 DIIS: error= 1.98D-02 at cycle   7 NSaved=   7.
 NSaved= 7 IEnMin= 4 EnMin= -3842.03522993299     IErMin= 4 ErrMin= 7.53D-03
 ErrMax= 1.98D-02 EMaxC= 1.00D-01 BMatC= 3.18D-02 BMatP= 2.03D-02
 IDIUse=2 WtCom= 0.00D+00 WtEn= 1.00D+00
 EnCoef did     7 forward-backward iterations
 Coeff-En:   0.000D+00 0.000D+00 0.000D+00 0.339D+00 0.275D+00 0.756D-01
 Coeff-En:   0.311D+00
 Coeff:      0.000D+00 0.000D+00 0.000D+00 0.339D+00 0.275D+00 0.756D-01
 Coeff:      0.311D+00
 Gap=     0.052 Goal=   None    Shift=    0.000
 RMSDP=2.45D-03 MaxDP=1.84D-01 DE=-2.23D-01 OVMax= 2.52D-01

 Cycle   8  Pass 1  IDiag  1:
 Density matrix breaks symmetry, PCut= 1.00D-04
 Density has only Abelian symmetry.
 E= -3841.90946299172     Delta-E=        0.121250436392 Rises=F Damp=F
 DIIS: error= 7.12D-02 at cycle   8 NSaved=   8.
 NSaved= 8 IEnMin= 4 EnMin= -3842.03522993299     IErMin= 4 ErrMin= 7.53D-03
 ErrMax= 7.12D-02 EMaxC= 1.00D-01 BMatC= 1.89D-01 BMatP= 2.03D-02
 IDIUse=2 WtCom= 0.00D+00 WtEn= 1.00D+00
 EnCoef did     4 forward-backward iterations
 Coeff-En:   0.000D+00 0.000D+00 0.000D+00 0.911D-01 0.246D+00 0.000D+00
 Coeff-En:   0.467D+00 0.196D+00
 Coeff:      0.000D+00 0.000D+00 0.000D+00 0.911D-01 0.246D+00 0.000D+00
 Coeff:      0.467D+00 0.196D+00
 Gap=     0.050 Goal=   None    Shift=    0.000
 RMSDP=1.80D-03 MaxDP=1.30D-01 DE= 1.21D-01 OVMax= 2.02D-01

 Cycle   9  Pass 1  IDiag  1:
 Density matrix breaks symmetry, PCut= 1.00D-04
 Density has only Abelian symmetry.
 E= -3842.05582719906     Delta-E=       -0.146364207338 Rises=F Damp=F
 DIIS: error= 9.06D-03 at cycle   9 NSaved=   9.
 NSaved= 9 IEnMin= 9 EnMin= -3842.05582719906     IErMin= 4 ErrMin= 7.53D-03
 ErrMax= 9.06D-03 EMaxC= 1.00D-01 BMatC= 5.51D-03 BMatP= 2.03D-02
 IDIUse=3 WtCom= 9.09D-01 WtEn= 9.06D-02
 EnCoef did   100 forward-backward iterations
 Coeff-Com: -0.579D-02 0.436D-02-0.172D-02 0.596D-01 0.124D+00 0.520D-01
 Coeff-Com:  0.261D+00 0.658D-01 0.441D+00
 Coeff-En:   0.000D+00 0.000D+00 0.000D+00 0.000D+00 0.000D+00 0.282D-02
 Coeff-En:   0.252D+00 0.565D-01 0.689D+00
 Coeff:     -0.527D-02 0.396D-02-0.156D-02 0.542D-01 0.112D+00 0.476D-01
 Coeff:      0.260D+00 0.650D-01 0.463D+00
 Gap=     0.054 Goal=   None    Shift=    0.000
 RMSDP=5.23D-04 MaxDP=1.67D-02 DE=-1.46D-01 OVMax= 2.51D-02

 Cycle  10  Pass 1  IDiag  1:
 Density matrix breaks symmetry, PCut= 1.00D-04
 Density has only Abelian symmetry.
 E= -3842.06174881326     Delta-E=       -0.005921614198 Rises=F Damp=F
 DIIS: error= 1.43D-03 at cycle  10 NSaved=  10.
 NSaved=10 IEnMin=10 EnMin= -3842.06174881326     IErMin=10 ErrMin= 1.43D-03
 ErrMax= 1.43D-03 EMaxC= 1.00D-01 BMatC= 1.57D-04 BMatP= 5.51D-03
 IDIUse=3 WtCom= 9.86D-01 WtEn= 1.43D-02
 Coeff-Com:  0.390D-03-0.192D-02-0.735D-03-0.711D-02 0.111D-01 0.954D-02
 Coeff-Com:  0.706D-01 0.138D-01 0.239D+00 0.665D+00
 Coeff-En:   0.000D+00 0.000D+00 0.000D+00 0.000D+00 0.000D+00 0.000D+00
 Coeff-En:   0.000D+00 0.000D+00 0.335D-01 0.966D+00
 Coeff:      0.384D-03-0.190D-02-0.724D-03-0.701D-02 0.110D-01 0.940D-02
 Coeff:      0.696D-01 0.136D-01 0.237D+00 0.669D+00
 Gap=     0.054 Goal=   None    Shift=    0.000
 RMSDP=7.20D-05 MaxDP=2.92D-03 DE=-5.92D-03 OVMax= 3.13D-03

 Cycle  11  Pass 1  IDiag  1:
 Density matrix breaks symmetry, PCut= 1.00D-04
 Density has only Abelian symmetry.
 E= -3842.06191889913     Delta-E=       -0.000170085874 Rises=F Damp=F
 DIIS: error= 3.52D-04 at cycle  11 NSaved=  11.
 NSaved=11 IEnMin=11 EnMin= -3842.06191889913     IErMin=11 ErrMin= 3.52D-04
 ErrMax= 3.52D-04 EMaxC= 1.00D-01 BMatC= 6.88D-06 BMatP= 1.57D-04
 IDIUse=3 WtCom= 9.96D-01 WtEn= 3.52D-03
 Coeff-Com:  0.593D-04-0.239D-03-0.190D-03-0.540D-02-0.102D-02-0.319D-03
 Coeff-Com:  0.121D-01 0.623D-02 0.703D-01 0.265D+00 0.654D+00
 Coeff-En:   0.000D+00 0.000D+00 0.000D+00 0.000D+00 0.000D+00 0.000D+00
 Coeff-En:   0.000D+00 0.000D+00 0.000D+00 0.000D+00 0.100D+01
 Coeff:      0.591D-04-0.238D-03-0.189D-03-0.538D-02-0.102D-02-0.318D-03
 Coeff:      0.120D-01 0.620D-02 0.701D-01 0.264D+00 0.655D+00
 Gap=     0.054 Goal=   None    Shift=    0.000
 RMSDP=1.30D-05 MaxDP=7.21D-04 DE=-1.70D-04 OVMax= 5.95D-04

 Cycle  12  Pass 1  IDiag  1:
 Density matrix breaks symmetry, PCut= 1.00D-04
 Density has only Abelian symmetry.
 E= -3842.06192481498     Delta-E=       -0.000005915848 Rises=F Damp=F
 DIIS: error= 7.67D-05 at cycle  12 NSaved=  12.
 NSaved=12 IEnMin=12 EnMin= -3842.06192481498     IErMin=12 ErrMin= 7.67D-05
 ErrMax= 7.67D-05 EMaxC= 1.00D-01 BMatC= 2.45D-07 BMatP= 6.88D-06
 IDIUse=1 WtCom= 1.00D+00 WtEn= 0.00D+00
 Coeff-Com: -0.204D-04 0.274D-04-0.132D-04-0.210D-02-0.131D-02 0.732D-04
 Coeff-Com: -0.212D-02 0.821D-03 0.128D-01 0.499D-01 0.269D+00 0.673D+00
 Coeff:     -0.204D-04 0.274D-04-0.132D-04-0.210D-02-0.131D-02 0.732D-04
 Coeff:     -0.212D-02 0.821D-03 0.128D-01 0.499D-01 0.269D+00 0.673D+00
 Gap=     0.054 Goal=   None    Shift=    0.000
 RMSDP=4.66D-06 MaxDP=2.54D-04 DE=-5.92D-06 OVMax= 4.29D-04

 Cycle  13  Pass 1  IDiag  1:
 E= -3842.06192510152     Delta-E=       -0.000000286536 Rises=F Damp=F
 DIIS: error= 6.51D-06 at cycle  13 NSaved=  13.
 NSaved=13 IEnMin=13 EnMin= -3842.06192510152     IErMin=13 ErrMin= 6.51D-06
 ErrMax= 6.51D-06 EMaxC= 1.00D-01 BMatC= 6.92D-09 BMatP= 2.45D-07
 IDIUse=1 WtCom= 1.00D+00 WtEn= 0.00D+00
 Coeff-Com:  0.341D-04-0.290D-04 0.307D-05-0.279D-03-0.271D-03-0.182D-03
 Coeff-Com: -0.927D-03 0.185D-03-0.595D-03 0.301D-02 0.643D-01 0.176D+00
 Coeff-Com:  0.759D+00
 Coeff:      0.341D-04-0.290D-04 0.307D-05-0.279D-03-0.271D-03-0.182D-03
 Coeff:     -0.927D-03 0.185D-03-0.595D-03 0.301D-02 0.643D-01 0.176D+00
 Coeff:      0.759D+00
 Gap=     0.054 Goal=   None    Shift=    0.000
 RMSDP=1.25D-06 MaxDP=7.39D-05 DE=-2.87D-07 OVMax= 9.73D-05

 Cycle  14  Pass 1  IDiag  1:
 E= -3842.06192511138     Delta-E=       -0.000000009861 Rises=F Damp=F
 DIIS: error= 1.31D-05 at cycle  14 NSaved=  14.
 NSaved=14 IEnMin=14 EnMin= -3842.06192511138     IErMin=13 ErrMin= 6.51D-06
 ErrMax= 1.31D-05 EMaxC= 1.00D-01 BMatC= 8.71D-09 BMatP= 6.92D-09
 IDIUse=1 WtCom= 1.00D+00 WtEn= 0.00D+00
 Coeff-Com: -0.203D-04 0.270D-04 0.250D-05 0.533D-04 0.826D-04-0.275D-04
 Coeff-Com:  0.471D-04-0.145D-03-0.291D-03-0.181D-02-0.721D-03-0.155D-01
 Coeff-Com:  0.149D+00 0.870D+00
 Coeff:     -0.203D-04 0.270D-04 0.250D-05 0.533D-04 0.826D-04-0.275D-04
 Coeff:      0.471D-04-0.145D-03-0.291D-03-0.181D-02-0.721D-03-0.155D-01
 Coeff:      0.149D+00 0.870D+00
 Gap=     0.054 Goal=   None    Shift=    0.000
 RMSDP=7.81D-07 MaxDP=4.99D-05 DE=-9.86D-09 OVMax= 8.23D-05

 Cycle  15  Pass 1  IDiag  1:
 E= -3842.06192511433     Delta-E=       -0.000000002954 Rises=F Damp=F
 DIIS: error= 1.40D-05 at cycle  15 NSaved=  15.
 NSaved=15 IEnMin=15 EnMin= -3842.06192511433     IErMin=13 ErrMin= 6.51D-06
 ErrMax= 1.40D-05 EMaxC= 1.00D-01 BMatC= 7.80D-09 BMatP= 6.92D-09
 IDIUse=1 WtCom= 1.00D+00 WtEn= 0.00D+00
 Coeff-Com: -0.311D-04 0.347D-04-0.501D-06 0.134D-03 0.203D-03 0.176D-04
 Coeff-Com:  0.584D-03-0.159D-03 0.529D-03 0.571D-05-0.213D-01-0.398D-01
 Coeff-Com: -0.263D+00-0.692D-01 0.139D+01
 Coeff:     -0.311D-04 0.347D-04-0.501D-06 0.134D-03 0.203D-03 0.176D-04
 Coeff:      0.584D-03-0.159D-03 0.529D-03 0.571D-05-0.213D-01-0.398D-01
 Coeff:     -0.263D+00-0.692D-01 0.139D+01
 Gap=     0.054 Goal=   None    Shift=    0.000
 RMSDP=7.85D-07 MaxDP=3.96D-05 DE=-2.95D-09 OVMax= 6.15D-05

 Cycle  16  Pass 1  IDiag  1:
 E= -3842.06192512127     Delta-E=       -0.000000006934 Rises=F Damp=F
 DIIS: error= 4.84D-06 at cycle  16 NSaved=  16.
 NSaved=16 IEnMin=16 EnMin= -3842.06192512127     IErMin=16 ErrMin= 4.84D-06
 ErrMax= 4.84D-06 EMaxC= 1.00D-01 BMatC= 9.41D-10 BMatP= 6.92D-09
 IDIUse=1 WtCom= 1.00D+00 WtEn= 0.00D+00
 Coeff-Com: -0.351D-05 0.380D-05-0.401D-06 0.357D-05 0.152D-04 0.152D-05
 Coeff-Com:  0.828D-04-0.220D-04 0.157D-03 0.614D-03 0.440D-03 0.762D-03
 Coeff-Com: -0.306D-01-0.112D+00-0.165D-01 0.116D+01
 Coeff:     -0.351D-05 0.380D-05-0.401D-06 0.357D-05 0.152D-04 0.152D-05
 Coeff:      0.828D-04-0.220D-04 0.157D-03 0.614D-03 0.440D-03 0.762D-03
 Coeff:     -0.306D-01-0.112D+00-0.165D-01 0.116D+01
 Gap=     0.054 Goal=   None    Shift=    0.000
 RMSDP=2.48D-07 MaxDP=1.32D-05 DE=-6.93D-09 OVMax= 1.81D-05

 Cycle  17  Pass 1  IDiag  1:
 E= -3842.06192512210     Delta-E=       -0.000000000839 Rises=F Damp=F
 DIIS: error= 2.44D-07 at cycle  17 NSaved=  17.
 NSaved=17 IEnMin=17 EnMin= -3842.06192512210     IErMin=17 ErrMin= 2.44D-07
 ErrMax= 2.44D-07 EMaxC= 1.00D-01 BMatC= 3.61D-12 BMatP= 9.41D-10
 IDIUse=1 WtCom= 1.00D+00 WtEn= 0.00D+00
 Coeff-Com:  0.457D-06-0.623D-06-0.512D-07-0.105D-04-0.903D-05-0.437D-06
 Coeff-Com: -0.108D-04 0.578D-06 0.378D-04 0.257D-03 0.188D-02 0.303D-02
 Coeff-Com:  0.873D-02-0.350D-01-0.106D+00 0.437D+00 0.689D+00
 Coeff:      0.457D-06-0.623D-06-0.512D-07-0.105D-04-0.903D-05-0.437D-06
 Coeff:     -0.108D-04 0.578D-06 0.378D-04 0.257D-03 0.188D-02 0.303D-02
 Coeff:      0.873D-02-0.350D-01-0.106D+00 0.437D+00 0.689D+00
 Gap=     0.054 Goal=   None    Shift=    0.000
 RMSDP=2.19D-08 MaxDP=1.14D-06 DE=-8.39D-10 OVMax= 1.50D-06

 Cycle  18  Pass 1  IDiag  1:
 E= -3842.06192512203     Delta-E=        0.000000000070 Rises=F Damp=F
 DIIS: error= 1.06D-07 at cycle  18 NSaved=  18.
 NSaved=18 IEnMin=17 EnMin= -3842.06192512210     IErMin=18 ErrMin= 1.06D-07
 ErrMax= 1.06D-07 EMaxC= 1.00D-01 BMatC= 5.22D-13 BMatP= 3.61D-12
 IDIUse=1 WtCom= 1.00D+00 WtEn= 0.00D+00
 Coeff-Com:  0.231D-06-0.254D-06-0.638D-08 0.116D-05 0.427D-06-0.224D-08
 Coeff-Com: -0.331D-05 0.140D-05-0.129D-04-0.645D-04-0.240D-03-0.330D-03
 Coeff-Com:  0.500D-03 0.484D-02 0.106D-01-0.747D-01-0.464D-02 0.106D+01
 Coeff:      0.231D-06-0.254D-06-0.638D-08 0.116D-05 0.427D-06-0.224D-08
 Coeff:     -0.331D-05 0.140D-05-0.129D-04-0.645D-04-0.240D-03-0.330D-03
 Coeff:      0.500D-03 0.484D-02 0.106D-01-0.747D-01-0.464D-02 0.106D+01
 Gap=     0.054 Goal=   None    Shift=    0.000
 RMSDP=5.78D-09 MaxDP=2.98D-07 DE= 7.00D-11 OVMax= 4.14D-07

 SCF Done:  E(RB3LYP) =  -3842.06192512     A.U. after   18 cycles
             Convg  =    0.5775D-08             -V/T =  2.0301
 KE= 3.729969854946D+03 PE=-1.297066518029D+04 EE= 3.480255597077D+03
 Leave Link  502 at Tue May  5 12:47:52 2015, MaxMem= 1073741824 cpu:      92.8
 (Enter /usr/g09/l601.exe)
 Copying SCF densities to generalized density rwf, IOpCl= 0 IROHF=0.

 **********************************************************************

            Population analysis using the SCF density.

 **********************************************************************

 Orbital symmetries:
       Occupied  (E) (E) (B2) (A1) (E) (E) (A1) (B2) (E) (E) (B2)
                 (A1) (E) (E) (A1) (B2) (B2) (A1) (E) (E) (A1)
                 (E) (E) (B2) (B2) (A1) (E) (E) (B2) (A1) (E) (E)
                 (A2) (E) (E) (B1) (A2) (E) (E) (B1) (A1) (A1)
                 (A1) (E) (E) (E) (E) (A1) (A1) (A1) (B2) (E) (E)
                 (B2) (E) (E) (A1) (B2) (B2) (E) (E) (B1) (A1)
                 (B1) (A1) (E) (E) (E) (E) (A1) (A1) (B2) (E) (E)
                 (E) (E) (E) (E) (B2) (A2) (A2) (E) (E) (B1)
       Virtual   (B1) (E) (E) (A1) (B2) (B2) (A1) (A1) (E) (E)
                 (E) (E) (A1) (A1) (A1) (E) (E) (A1) (A1) (E) (E)
                 (B2) (B2) (B1) (B1) (A1) (E) (E) (B1) (B2) (E)
                 (E) (E) (E) (A1) (B1) (E) (E) (E) (E) (E) (E)
                 (A1) (A2) (E) (E) (B2) (B2) (A1) (E) (E) (A2)
                 (A1) (B2) (E) (E) (B2) (A1) (A1) (E) (E) (B2)
                 (A2) (E) (E) (B1) (B2) (A2) (B1) (E) (E) (E) (E)
                 (A1) (A1) (E) (E) (B2) (A2) (E) (E) (A2) (E) (E)
                 (A1) (B2) (A1) (A1) (E) (E) (B1) (B2) (B2) (E)
                 (E) (E) (E) (A1) (B1) (E) (E) (B2) (A1) (A1)
 The electronic state is 1-A1.
 Alpha  occ. eigenvalues -- -101.24499-101.24499-101.24498-101.24497-101.24494
 Alpha  occ. eigenvalues -- -101.24494-101.24493-101.24493  -9.17756  -9.17756
 Alpha  occ. eigenvalues --   -9.17753  -9.17750  -9.17746  -9.17746  -9.17745
 Alpha  occ. eigenvalues --   -9.17742  -6.93740  -6.93736  -6.93736  -6.93736
 Alpha  occ. eigenvalues --   -6.93731  -6.93731  -6.93731  -6.93730  -6.93280
 Alpha  occ. eigenvalues --   -6.93280  -6.93279  -6.93279  -6.93275  -6.93274
 Alpha  occ. eigenvalues --   -6.93273  -6.93273  -6.93209  -6.93208  -6.93208
 Alpha  occ. eigenvalues --   -6.93206  -6.93203  -6.93203  -6.93203  -6.93201
 Alpha  occ. eigenvalues --   -2.53722  -2.52439  -1.51182  -1.48303  -1.48303
 Alpha  occ. eigenvalues --   -1.47292  -1.47292  -1.44139  -0.55329  -0.54443
 Alpha  occ. eigenvalues --   -0.53190  -0.53040  -0.53040  -0.52394  -0.52339
 Alpha  occ. eigenvalues --   -0.52339  -0.15904  -0.15873  -0.14300  -0.14282
 Alpha  occ. eigenvalues --   -0.14282  -0.14278  -0.13802  -0.12265  -0.11187
 Alpha  occ. eigenvalues --   -0.10437  -0.10437  -0.09357  -0.09357  -0.07297
 Alpha  occ. eigenvalues --   -0.06218  -0.05850  -0.04767  -0.04767  -0.04064
 Alpha  occ. eigenvalues --   -0.04064  -0.03666  -0.03666  -0.01886  -0.01703
 Alpha  occ. eigenvalues --   -0.01061  -0.00487  -0.00487   0.02845
 Alpha virt. eigenvalues --    0.08245   0.13880   0.13880   0.15169   0.18606
 Alpha virt. eigenvalues --    0.20085   0.21653   0.23822   0.25574   0.25574
 Alpha virt. eigenvalues --    0.25810   0.25810   0.28759   0.33576   0.38706
 Alpha virt. eigenvalues --    0.46462   0.46462   0.47558   0.52978   0.55762
 Alpha virt. eigenvalues --    0.55762   0.59877   0.59886   0.60734   0.62758
 Alpha virt. eigenvalues --    0.64002   0.64514   0.64514   0.66247   0.69651
 Alpha virt. eigenvalues --    0.69881   0.69881   0.70257   0.70257   0.73586
 Alpha virt. eigenvalues --    0.73928   0.74678   0.74678   0.74702   0.74702
 Alpha virt. eigenvalues --    0.78534   0.78534   0.79045   0.79926   0.81042
 Alpha virt. eigenvalues --    0.81042   0.81966   0.83130   0.83928   0.84673
 Alpha virt. eigenvalues --    0.84673   0.85583   0.86384   0.89813   0.90012
 Alpha virt. eigenvalues --    0.90012   0.91070   0.93058   0.94447   1.06638
 Alpha virt. eigenvalues --    1.06638   1.13381   1.14031   1.14044   1.14044
 Alpha virt. eigenvalues --    1.14253   1.14273   1.14433   1.14682   1.14700
 Alpha virt. eigenvalues --    1.14700   1.14991   1.14991   1.15076   1.17671
 Alpha virt. eigenvalues --    1.17893   1.17893   1.18018   1.18279   1.19407
 Alpha virt. eigenvalues --    1.19407   1.19913   1.21275   1.21275   1.21347
 Alpha virt. eigenvalues --    1.25399   1.26188   1.26939   1.28978   1.28978
 Alpha virt. eigenvalues --    1.33237   1.35550   1.43009   1.43965   1.43965
 Alpha virt. eigenvalues --    1.44071   1.44071   1.45190   1.52164   1.59334
 Alpha virt. eigenvalues --    1.59334   1.80364   8.92851  18.07647
     Molecular Orbital Coefficients:
                           1         2         3         4         5
                        (E)--O    (E)--O    (B2)--O   (A1)--O   (E)--O
     Eigenvalues --  -101.24499-101.24499-101.24498-101.24497-101.24494
   1 1   Tc 1S          0.00000   0.00000   0.00000  -0.00012   0.00000
   2        2S          0.00000   0.00000   0.00000   0.00007   0.00000
   3        3S          0.00000   0.00000   0.00000  -0.00720   0.00000
   4        4PX         0.00030   0.00000   0.00000   0.00000  -0.00001
   5        4PY         0.00000  -0.00030   0.00000   0.00000   0.00000
   6        4PZ         0.00000   0.00000   0.00000  -0.00001   0.00000
   7        5PX         0.00507   0.00000   0.00000   0.00000  -0.00032
   8        5PY         0.00000  -0.00507   0.00000   0.00000   0.00000
   9        5PZ         0.00000   0.00000   0.00000   0.00082   0.00000
  10        6PX         0.00029   0.00000   0.00000   0.00000   0.00010
  11        6PY         0.00000  -0.00029   0.00000   0.00000   0.00000
  12        6PZ         0.00000   0.00000   0.00000   0.00099   0.00000
  13        7D 0        0.00000   0.00000   0.00000  -0.00002   0.00000
  14        7D+1        0.00002   0.00000   0.00000   0.00000  -0.00001
  15        7D-1        0.00000  -0.00002   0.00000   0.00000   0.00000
  16        7D+2        0.00000   0.00000  -0.00013   0.00000   0.00000
  17        7D-2        0.00000   0.00000   0.00000   0.00000   0.00000
  18        8D 0        0.00000   0.00000   0.00000   0.00033   0.00000
  19        8D+1        0.00009   0.00000   0.00000   0.00000   0.00046
  20        8D-1        0.00000  -0.00009   0.00000   0.00000   0.00000
  21        8D+2        0.00000   0.00000  -0.00045   0.00000   0.00000
  22        8D-2        0.00000   0.00000   0.00000   0.00000   0.00000
  23 2   Tc 1S          0.00000   0.00000   0.00000   0.00017   0.00000
  24        2S          0.00000   0.00000   0.00000   0.00003   0.00000
  25        3S          0.00000   0.00000   0.00000   0.00419   0.00000
  26        4PX        -0.00019   0.00000   0.00000   0.00000   0.00024
  27        4PY         0.00000   0.00019   0.00000   0.00000   0.00000
  28        4PZ         0.00000   0.00000   0.00000   0.00007   0.00000
  29        5PX        -0.00324   0.00000   0.00000   0.00000   0.00390
  30        5PY         0.00000   0.00324   0.00000   0.00000   0.00000
  31        5PZ         0.00000   0.00000   0.00000   0.00135   0.00000
  32        6PX        -0.00009   0.00000   0.00000   0.00000   0.00030
  33        6PY         0.00000   0.00009   0.00000   0.00000   0.00000
  34        6PZ         0.00000   0.00000   0.00000   0.00043   0.00000
  35        7D 0        0.00000   0.00000   0.00000   0.00001   0.00000
  36        7D+1        0.00002   0.00000   0.00000   0.00000  -0.00001
  37        7D-1        0.00000  -0.00002   0.00000   0.00000   0.00000
  38        7D+2        0.00000   0.00000   0.00013   0.00000   0.00000
  39        7D-2        0.00000   0.00000   0.00000   0.00000   0.00000
  40        8D 0        0.00000   0.00000   0.00000   0.00018   0.00000
  41        8D+1       -0.00032   0.00000   0.00000   0.00000  -0.00034
  42        8D-1        0.00000   0.00032   0.00000   0.00000   0.00000
  43        8D+2        0.00000   0.00000  -0.00004   0.00000   0.00000
  44        8D-2        0.00000   0.00000   0.00000   0.00000   0.00000
  45 3   Cl 1S          0.00000  -0.21839   0.17145  -0.01478   0.00000
  46        2S          0.00000  -0.00276   0.00219  -0.00019   0.00000
  47        2PX        -0.00001   0.00000   0.00000   0.00000   0.00001
  48        2PY         0.00000   0.00002  -0.00002   0.00000   0.00000
  49        2PZ         0.00000  -0.00001   0.00002   0.00000   0.00000
  50        3S          0.00000   0.00148  -0.00103   0.00009   0.00000
  51        3PX         0.00007   0.00000   0.00000   0.00000  -0.00005
  52        3PY         0.00000  -0.00008   0.00010  -0.00002   0.00000
  53        3PZ         0.00000   0.00008  -0.00011  -0.00001   0.00000
  54        4S          0.00000  -0.00229   0.00082  -0.00010   0.00000
  55        4PX         0.00008   0.00000   0.00000   0.00000  -0.00022
  56        4PY         0.00000   0.00080  -0.00023   0.00001   0.00000
  57        4PZ         0.00000  -0.00035   0.00023   0.00005   0.00000
  58        5D 0        0.00000   0.00001   0.00000  -0.00001   0.00000
  59        5D+1        0.00001   0.00000   0.00000   0.00000  -0.00003
  60        5D-1        0.00000   0.00004   0.00000   0.00000   0.00000
  61        5D+2        0.00000   0.00004  -0.00001   0.00000   0.00000
  62        5D-2       -0.00004   0.00000   0.00000   0.00000   0.00005
  63 4   Cl 1S         -0.21838   0.00000  -0.17151  -0.01451   0.66991
  64        2S         -0.00276   0.00000  -0.00219  -0.00018   0.00851
  65        2PX        -0.00002   0.00000  -0.00002   0.00000   0.00004
  66        2PY         0.00000   0.00001   0.00000   0.00000   0.00000
  67        2PZ        -0.00001   0.00000  -0.00002   0.00000   0.00001
  68        3S          0.00148   0.00000   0.00103   0.00009  -0.00372
  69        3PX         0.00008   0.00000   0.00010   0.00002  -0.00016
  70        3PY         0.00000  -0.00007   0.00000   0.00000   0.00000
  71        3PZ         0.00008   0.00000   0.00011  -0.00001  -0.00005
  72        4S         -0.00229   0.00000  -0.00082  -0.00010   0.00437
  73        4PX        -0.00080   0.00000  -0.00023  -0.00001   0.00136
  74        4PY         0.00000  -0.00008   0.00000   0.00000   0.00000
  75        4PZ        -0.00035   0.00000  -0.00023   0.00005   0.00036
  76        5D 0        0.00001   0.00000   0.00000  -0.00001  -0.00005
  77        5D+1       -0.00004   0.00000   0.00000   0.00000   0.00004
  78        5D-1        0.00000  -0.00001   0.00000   0.00000   0.00000
  79        5D+2       -0.00004   0.00000  -0.00001   0.00000   0.00009
  80        5D-2        0.00000  -0.00004   0.00000   0.00000   0.00000
  81 5   Cl 1S          0.21838   0.00000  -0.17151  -0.01451  -0.66991
  82        2S          0.00276   0.00000  -0.00219  -0.00018  -0.00851
  83        2PX        -0.00002   0.00000   0.00002   0.00000   0.00004
  84        2PY         0.00000   0.00001   0.00000   0.00000   0.00000
  85        2PZ         0.00001   0.00000  -0.00002   0.00000  -0.00001
  86        3S         -0.00148   0.00000   0.00103   0.00009   0.00372
  87        3PX         0.00008   0.00000  -0.00010  -0.00002  -0.00016
  88        3PY         0.00000  -0.00007   0.00000   0.00000   0.00000
  89        3PZ        -0.00008   0.00000   0.00011  -0.00001   0.00005
  90        4S          0.00229   0.00000  -0.00082  -0.00010  -0.00437
  91        4PX        -0.00080   0.00000   0.00023   0.00001   0.00136
  92        4PY         0.00000  -0.00008   0.00000   0.00000   0.00000
  93        4PZ         0.00035   0.00000  -0.00023   0.00005  -0.00036
  94        5D 0       -0.00001   0.00000   0.00000  -0.00001   0.00005
  95        5D+1       -0.00004   0.00000   0.00000   0.00000   0.00004
  96        5D-1        0.00000  -0.00001   0.00000   0.00000   0.00000
  97        5D+2        0.00004   0.00000  -0.00001   0.00000  -0.00009
  98        5D-2        0.00000   0.00004   0.00000   0.00000   0.00000
  99 6   Cl 1S          0.00000   0.21839   0.17145  -0.01478   0.00000
 100        2S          0.00000   0.00276   0.00219  -0.00019   0.00000
 101        2PX        -0.00001   0.00000   0.00000   0.00000   0.00001
 102        2PY         0.00000   0.00002   0.00002   0.00000   0.00000
 103        2PZ         0.00000   0.00001   0.00002   0.00000   0.00000
 104        3S          0.00000  -0.00148  -0.00103   0.00009   0.00000
 105        3PX         0.00007   0.00000   0.00000   0.00000  -0.00005
 106        3PY         0.00000  -0.00008  -0.00010   0.00002   0.00000
 107        3PZ         0.00000  -0.00008  -0.00011  -0.00001   0.00000
 108        4S          0.00000   0.00229   0.00082  -0.00010   0.00000
 109        4PX         0.00008   0.00000   0.00000   0.00000  -0.00022
 110        4PY         0.00000   0.00080   0.00023  -0.00001   0.00000
 111        4PZ         0.00000   0.00035   0.00023   0.00005   0.00000
 112        5D 0        0.00000  -0.00001   0.00000  -0.00001   0.00000
 113        5D+1        0.00001   0.00000   0.00000   0.00000  -0.00003
 114        5D-1        0.00000   0.00004   0.00000   0.00000   0.00000
 115        5D+2        0.00000  -0.00004  -0.00001   0.00000   0.00000
 116        5D-2        0.00004   0.00000   0.00000   0.00000  -0.00005
 117 7   Cl 1S          0.00000   0.66990  -0.46746   0.49832   0.00000
 118        2S          0.00000   0.00850  -0.00596   0.00634   0.00000
 119        2PX         0.00002   0.00000   0.00000   0.00000  -0.00001
 120        2PY         0.00000  -0.00004   0.00004  -0.00002   0.00000
 121        2PZ         0.00000  -0.00002   0.00002   0.00000   0.00000
 122        3S          0.00000  -0.00387   0.00248  -0.00263   0.00000
 123        3PX        -0.00008   0.00000   0.00000   0.00000   0.00002
 124        3PY         0.00000   0.00017  -0.00019   0.00005   0.00000
 125        3PZ         0.00000   0.00009  -0.00008   0.00002   0.00000
 126        4S          0.00000   0.00489  -0.00200   0.00277   0.00000
 127        4PX        -0.00023   0.00000   0.00000   0.00000  -0.00006
 128        4PY         0.00000  -0.00157   0.00065  -0.00046   0.00000
 129        4PZ         0.00000  -0.00050   0.00026  -0.00019   0.00000
 130        5D 0        0.00000  -0.00005   0.00003   0.00000   0.00000
 131        5D+1        0.00003   0.00000   0.00000   0.00000   0.00001
 132        5D-1        0.00000   0.00005  -0.00003   0.00003   0.00000
 133        5D+2        0.00000  -0.00009   0.00003  -0.00002   0.00000
 134        5D-2        0.00006   0.00000   0.00000   0.00000   0.00000
 135 8   Cl 1S          0.66990   0.00000   0.46812   0.49772   0.21840
 136        2S          0.00850   0.00000   0.00597   0.00633   0.00279
 137        2PX         0.00004   0.00000   0.00004   0.00002   0.00001
 138        2PY         0.00000  -0.00002   0.00000   0.00000   0.00000
 139        2PZ        -0.00002   0.00000  -0.00002   0.00000   0.00001
 140        3S         -0.00387   0.00000  -0.00248  -0.00262  -0.00100
 141        3PX        -0.00017   0.00000  -0.00019  -0.00005  -0.00003
 142        3PY         0.00000   0.00008   0.00000   0.00000   0.00000
 143        3PZ         0.00009   0.00000   0.00008   0.00002  -0.00003
 144        4S          0.00489   0.00000   0.00200   0.00277   0.00073
 145        4PX         0.00157   0.00000   0.00065   0.00046   0.00016
 146        4PY         0.00000   0.00023   0.00000   0.00000   0.00000
 147        4PZ        -0.00050   0.00000  -0.00026  -0.00019   0.00007
 148        5D 0       -0.00005   0.00000  -0.00003   0.00000  -0.00002
 149        5D+1       -0.00005   0.00000  -0.00003  -0.00003   0.00001
 150        5D-1        0.00000  -0.00003   0.00000   0.00000   0.00000
 151        5D+2        0.00009   0.00000   0.00003   0.00002   0.00002
 152        5D-2        0.00000   0.00006   0.00000   0.00000   0.00000
 153 9   Cl 1S         -0.66990   0.00000   0.46812   0.49772  -0.21840
 154        2S         -0.00850   0.00000   0.00597   0.00633  -0.00279
 155        2PX         0.00004   0.00000  -0.00004  -0.00002   0.00001
 156        2PY         0.00000  -0.00002   0.00000   0.00000   0.00000
 157        2PZ         0.00002   0.00000  -0.00002   0.00000  -0.00001
 158        3S          0.00387   0.00000  -0.00248  -0.00262   0.00100
 159        3PX        -0.00017   0.00000   0.00019   0.00005  -0.00003
 160        3PY         0.00000   0.00008   0.00000   0.00000   0.00000
 161        3PZ        -0.00009   0.00000   0.00008   0.00002   0.00003
 162        4S         -0.00489   0.00000   0.00200   0.00277  -0.00073
 163        4PX         0.00157   0.00000  -0.00065  -0.00046   0.00016
 164        4PY         0.00000   0.00023   0.00000   0.00000   0.00000
 165        4PZ         0.00050   0.00000  -0.00026  -0.00019  -0.00007
 166        5D 0        0.00005   0.00000  -0.00003   0.00000   0.00002
 167        5D+1       -0.00005   0.00000   0.00003   0.00003   0.00001
 168        5D-1        0.00000  -0.00003   0.00000   0.00000   0.00000
 169        5D+2       -0.00009   0.00000   0.00003   0.00002  -0.00002
 170        5D-2        0.00000  -0.00006   0.00000   0.00000   0.00000
 171 10  Cl 1S          0.00000  -0.66990  -0.46746   0.49832   0.00000
 172        2S          0.00000  -0.00850  -0.00596   0.00634   0.00000
 173        2PX         0.00002   0.00000   0.00000   0.00000  -0.00001
 174        2PY         0.00000  -0.00004  -0.00004   0.00002   0.00000
 175        2PZ         0.00000   0.00002   0.00002   0.00000   0.00000
 176        3S          0.00000   0.00387   0.00248  -0.00263   0.00000
 177        3PX        -0.00008   0.00000   0.00000   0.00000   0.00002
 178        3PY         0.00000   0.00017   0.00019  -0.00005   0.00000
 179        3PZ         0.00000  -0.00009  -0.00008   0.00002   0.00000
 180        4S          0.00000  -0.00489  -0.00200   0.00277   0.00000
 181        4PX        -0.00023   0.00000   0.00000   0.00000  -0.00006
 182        4PY         0.00000  -0.00157  -0.00065   0.00046   0.00000
 183        4PZ         0.00000   0.00050   0.00026  -0.00019   0.00000
 184        5D 0        0.00000   0.00005   0.00003   0.00000   0.00000
 185        5D+1        0.00003   0.00000   0.00000   0.00000   0.00001
 186        5D-1        0.00000   0.00005   0.00003  -0.00003   0.00000
 187        5D+2        0.00000   0.00009   0.00003  -0.00002   0.00000
 188        5D-2       -0.00006   0.00000   0.00000   0.00000   0.00000
                           6         7         8         9        10
                        (E)--O    (A1)--O   (B2)--O   (E)--O    (E)--O
     Eigenvalues --  -101.24494-101.24493-101.24493  -9.17756  -9.17756
   1 1   Tc 1S          0.00000   0.00016   0.00000   0.00000   0.00000
   2        2S          0.00000   0.00003   0.00000   0.00000   0.00000
   3        3S          0.00000   0.00377   0.00001   0.00000   0.00000
   4        4PX         0.00000   0.00000   0.00000  -0.00153   0.00000
   5        4PY         0.00001   0.00000   0.00000   0.00000   0.00153
   6        4PZ         0.00000  -0.00007   0.00000   0.00000   0.00000
   7        5PX         0.00000   0.00000   0.00000  -0.02559   0.00000
   8        5PY         0.00032   0.00000   0.00000   0.00000   0.02559
   9        5PZ         0.00000  -0.00130   0.00000   0.00000   0.00000
  10        6PX         0.00000   0.00000   0.00000  -0.00179   0.00000
  11        6PY        -0.00010   0.00000   0.00000   0.00000   0.00179
  12        6PZ         0.00000  -0.00037   0.00000   0.00000   0.00000
  13        7D 0        0.00000   0.00001   0.00000   0.00000   0.00000
  14        7D+1        0.00000   0.00000   0.00000  -0.00005   0.00000
  15        7D-1        0.00001   0.00000   0.00000   0.00000   0.00005
  16        7D+2        0.00000   0.00000  -0.00006   0.00000   0.00000
  17        7D-2        0.00000   0.00000   0.00000   0.00000   0.00000
  18        8D 0        0.00000   0.00020   0.00000   0.00000   0.00000
  19        8D+1        0.00000   0.00000   0.00000  -0.00004   0.00000
  20        8D-1       -0.00046   0.00000   0.00000   0.00000   0.00004
  21        8D+2        0.00000   0.00000   0.00044   0.00000   0.00000
  22        8D-2        0.00000   0.00000   0.00000   0.00000   0.00000
  23 2   Tc 1S          0.00000  -0.00011   0.00000   0.00000   0.00000
  24        2S          0.00000   0.00007   0.00000   0.00000   0.00000
  25        3S          0.00000  -0.00697  -0.00001   0.00000   0.00000
  26        4PX         0.00000   0.00000   0.00000   0.00118   0.00000
  27        4PY        -0.00024   0.00000   0.00000   0.00000  -0.00118
  28        4PZ         0.00000   0.00001   0.00000   0.00000   0.00000
  29        5PX         0.00000   0.00000   0.00000   0.01986   0.00000
  30        5PY        -0.00390   0.00000   0.00000   0.00000  -0.01986
  31        5PZ         0.00000  -0.00075   0.00000   0.00000   0.00000
  32        6PX         0.00000   0.00000   0.00000   0.00107   0.00000
  33        6PY        -0.00030   0.00000   0.00000   0.00000  -0.00107
  34        6PZ         0.00000  -0.00097   0.00000   0.00000   0.00000
  35        7D 0        0.00000  -0.00002   0.00000   0.00000   0.00000
  36        7D+1        0.00000   0.00000   0.00000  -0.00009   0.00000
  37        7D-1        0.00001   0.00000   0.00000   0.00000   0.00009
  38        7D+2        0.00000   0.00000   0.00006   0.00000   0.00000
  39        7D-2        0.00000   0.00000   0.00000   0.00000   0.00000
  40        8D 0        0.00000   0.00034   0.00000   0.00000   0.00000
  41        8D+1        0.00000   0.00000   0.00000   0.00121   0.00000
  42        8D-1        0.00034   0.00000   0.00000   0.00000  -0.00121
  43        8D+2        0.00000   0.00000   0.00063   0.00000   0.00000
  44        8D-2        0.00000   0.00000   0.00000   0.00000   0.00000
  45 3   Cl 1S          0.66991   0.49701   0.46887   0.00000   0.09866
  46        2S          0.00851   0.00632   0.00598   0.00000  -0.35528
  47        2PX         0.00000   0.00000   0.00000   0.00007   0.00000
  48        2PY        -0.00004  -0.00002  -0.00004   0.00000   0.00084
  49        2PZ         0.00001   0.00000   0.00000   0.00000  -0.00003
  50        3S         -0.00372  -0.00262  -0.00239   0.00000  -0.01654
  51        3PX         0.00000   0.00000   0.00000  -0.00039   0.00000
  52        3PY         0.00016   0.00005   0.00017   0.00000   0.00064
  53        3PZ        -0.00005  -0.00002  -0.00002   0.00000  -0.00046
  54        4S          0.00437   0.00276   0.00193   0.00000   0.01664
  55        4PX         0.00000   0.00000   0.00000  -0.00060   0.00000
  56        4PY        -0.00136  -0.00046  -0.00066   0.00000  -0.00534
  57        4PZ         0.00036   0.00019   0.00014   0.00000   0.00214
  58        5D 0       -0.00005   0.00000  -0.00004   0.00000  -0.00008
  59        5D+1        0.00000   0.00000   0.00000  -0.00006   0.00000
  60        5D-1       -0.00004  -0.00003  -0.00003   0.00000  -0.00018
  61        5D+2       -0.00009  -0.00002  -0.00004   0.00000  -0.00020
  62        5D-2        0.00000   0.00000   0.00000   0.00019   0.00000
  63 4   Cl 1S          0.00000   0.49903  -0.46672   0.09866   0.00000
  64        2S          0.00000   0.00635  -0.00595  -0.35528   0.00000
  65        2PX         0.00000   0.00002  -0.00004  -0.00084   0.00000
  66        2PY        -0.00001   0.00000   0.00000   0.00000  -0.00007
  67        2PZ         0.00000   0.00000   0.00000  -0.00003   0.00000
  68        3S          0.00000  -0.00263   0.00238  -0.01654   0.00000
  69        3PX         0.00000  -0.00005   0.00017  -0.00064   0.00000
  70        3PY         0.00005   0.00000   0.00000   0.00000   0.00039
  71        3PZ         0.00000  -0.00002   0.00002  -0.00046   0.00000
  72        4S          0.00000   0.00277  -0.00192   0.01664   0.00000
  73        4PX         0.00000   0.00046  -0.00066   0.00534   0.00000
  74        4PY         0.00022   0.00000   0.00000   0.00000   0.00060
  75        4PZ         0.00000   0.00019  -0.00014   0.00214   0.00000
  76        5D 0        0.00000   0.00000   0.00004  -0.00008   0.00000
  77        5D+1        0.00000   0.00003  -0.00003   0.00018   0.00000
  78        5D-1        0.00003   0.00000   0.00000   0.00000   0.00006
  79        5D+2        0.00000   0.00003  -0.00004   0.00020   0.00000
  80        5D-2        0.00005   0.00000   0.00000   0.00000   0.00019
  81 5   Cl 1S          0.00000   0.49903  -0.46672  -0.09866   0.00000
  82        2S          0.00000   0.00635  -0.00595   0.35528   0.00000
  83        2PX         0.00000  -0.00002   0.00004  -0.00084   0.00000
  84        2PY        -0.00001   0.00000   0.00000   0.00000  -0.00007
  85        2PZ         0.00000   0.00000   0.00000   0.00003   0.00000
  86        3S          0.00000  -0.00263   0.00238   0.01654   0.00000
  87        3PX         0.00000   0.00005  -0.00017  -0.00064   0.00000
  88        3PY         0.00005   0.00000   0.00000   0.00000   0.00039
  89        3PZ         0.00000  -0.00002   0.00002   0.00046   0.00000
  90        4S          0.00000   0.00277  -0.00192  -0.01664   0.00000
  91        4PX         0.00000  -0.00046   0.00066   0.00534   0.00000
  92        4PY         0.00022   0.00000   0.00000   0.00000   0.00060
  93        4PZ         0.00000   0.00019  -0.00014  -0.00214   0.00000
  94        5D 0        0.00000   0.00000   0.00004   0.00008   0.00000
  95        5D+1        0.00000  -0.00003   0.00003   0.00018   0.00000
  96        5D-1        0.00003   0.00000   0.00000   0.00000   0.00006
  97        5D+2        0.00000   0.00003  -0.00004  -0.00020   0.00000
  98        5D-2       -0.00005   0.00000   0.00000   0.00000  -0.00019
  99 6   Cl 1S         -0.66991   0.49701   0.46887   0.00000  -0.09866
 100        2S         -0.00851   0.00632   0.00598   0.00000   0.35528
 101        2PX         0.00000   0.00000   0.00000   0.00007   0.00000
 102        2PY        -0.00004   0.00002   0.00004   0.00000   0.00084
 103        2PZ        -0.00001   0.00000   0.00000   0.00000   0.00003
 104        3S          0.00372  -0.00262  -0.00239   0.00000   0.01654
 105        3PX         0.00000   0.00000   0.00000  -0.00039   0.00000
 106        3PY         0.00016  -0.00005  -0.00017   0.00000   0.00064
 107        3PZ         0.00005  -0.00002  -0.00002   0.00000   0.00046
 108        4S         -0.00437   0.00276   0.00193   0.00000  -0.01664
 109        4PX         0.00000   0.00000   0.00000  -0.00060   0.00000
 110        4PY        -0.00136   0.00046   0.00066   0.00000  -0.00534
 111        4PZ        -0.00036   0.00019   0.00014   0.00000  -0.00214
 112        5D 0        0.00005   0.00000  -0.00004   0.00000   0.00008
 113        5D+1        0.00000   0.00000   0.00000  -0.00006   0.00000
 114        5D-1       -0.00004   0.00003   0.00003   0.00000  -0.00018
 115        5D+2        0.00009  -0.00002  -0.00004   0.00000   0.00020
 116        5D-2        0.00000   0.00000   0.00000  -0.00019   0.00000
 117 7   Cl 1S          0.21840   0.01426   0.17155   0.00000  -0.17617
 118        2S          0.00279   0.00018   0.00219   0.00000   0.63421
 119        2PX         0.00000   0.00000   0.00000  -0.00008   0.00000
 120        2PY        -0.00001   0.00000  -0.00001   0.00000  -0.00151
 121        2PZ         0.00001   0.00000   0.00001   0.00000  -0.00010
 122        3S         -0.00100  -0.00006  -0.00076   0.00000   0.02820
 123        3PX         0.00000   0.00000   0.00000   0.00043   0.00000
 124        3PY         0.00003  -0.00001   0.00003   0.00000  -0.00101
 125        3PZ        -0.00003   0.00001  -0.00007   0.00000  -0.00050
 126        4S          0.00073   0.00006   0.00062   0.00000  -0.02541
 127        4PX         0.00000   0.00000   0.00000   0.00104   0.00000
 128        4PY        -0.00016  -0.00001  -0.00025   0.00000   0.00778
 129        4PZ         0.00007  -0.00006   0.00009   0.00000   0.00260
 130        5D 0       -0.00002  -0.00001  -0.00002   0.00000   0.00017
 131        5D+1        0.00000   0.00000   0.00000  -0.00012   0.00000
 132        5D-1       -0.00001   0.00000   0.00002   0.00000  -0.00020
 133        5D+2       -0.00002   0.00000  -0.00002   0.00000   0.00029
 134        5D-2        0.00000   0.00000   0.00000  -0.00025   0.00000
 135 8   Cl 1S          0.00000   0.01504  -0.17144  -0.17617   0.00000
 136        2S          0.00000   0.00019  -0.00219   0.63421   0.00000
 137        2PX         0.00000   0.00000  -0.00001   0.00151   0.00000
 138        2PY         0.00001   0.00000   0.00000   0.00000   0.00008
 139        2PZ         0.00000   0.00000  -0.00001  -0.00010   0.00000
 140        3S          0.00000  -0.00007   0.00076   0.02820   0.00000
 141        3PX         0.00000   0.00001   0.00003   0.00101   0.00000
 142        3PY        -0.00002   0.00000   0.00000   0.00000  -0.00043
 143        3PZ         0.00000   0.00001   0.00007  -0.00050   0.00000
 144        4S          0.00000   0.00006  -0.00062  -0.02541   0.00000
 145        4PX         0.00000   0.00002  -0.00025  -0.00778   0.00000
 146        4PY         0.00006   0.00000   0.00000   0.00000  -0.00104
 147        4PZ         0.00000  -0.00006  -0.00009   0.00260   0.00000
 148        5D 0        0.00000  -0.00001   0.00002   0.00017   0.00000
 149        5D+1        0.00000   0.00000   0.00002   0.00020   0.00000
 150        5D-1       -0.00001   0.00000   0.00000   0.00000   0.00012
 151        5D+2        0.00000   0.00000  -0.00002  -0.00029   0.00000
 152        5D-2        0.00000   0.00000   0.00000   0.00000  -0.00025
 153 9   Cl 1S          0.00000   0.01504  -0.17144   0.17617   0.00000
 154        2S          0.00000   0.00019  -0.00219  -0.63421   0.00000
 155        2PX         0.00000   0.00000   0.00001   0.00151   0.00000
 156        2PY         0.00001   0.00000   0.00000   0.00000   0.00008
 157        2PZ         0.00000   0.00000  -0.00001   0.00010   0.00000
 158        3S          0.00000  -0.00007   0.00076  -0.02820   0.00000
 159        3PX         0.00000  -0.00001  -0.00003   0.00101   0.00000
 160        3PY        -0.00002   0.00000   0.00000   0.00000  -0.00043
 161        3PZ         0.00000   0.00001   0.00007   0.00050   0.00000
 162        4S          0.00000   0.00006  -0.00062   0.02541   0.00000
 163        4PX         0.00000  -0.00002   0.00025  -0.00778   0.00000
 164        4PY         0.00006   0.00000   0.00000   0.00000  -0.00104
 165        4PZ         0.00000  -0.00006  -0.00009  -0.00260   0.00000
 166        5D 0        0.00000  -0.00001   0.00002  -0.00017   0.00000
 167        5D+1        0.00000   0.00000  -0.00002   0.00020   0.00000
 168        5D-1       -0.00001   0.00000   0.00000   0.00000   0.00012
 169        5D+2        0.00000   0.00000  -0.00002   0.00029   0.00000
 170        5D-2        0.00000   0.00000   0.00000   0.00000   0.00025
 171 10  Cl 1S         -0.21840   0.01426   0.17155   0.00000   0.17617
 172        2S         -0.00279   0.00018   0.00219   0.00000  -0.63421
 173        2PX         0.00000   0.00000   0.00000  -0.00008   0.00000
 174        2PY        -0.00001   0.00000   0.00001   0.00000  -0.00151
 175        2PZ        -0.00001   0.00000   0.00001   0.00000   0.00010
 176        3S          0.00100  -0.00006  -0.00076   0.00000  -0.02820
 177        3PX         0.00000   0.00000   0.00000   0.00043   0.00000
 178        3PY         0.00003   0.00001  -0.00003   0.00000  -0.00101
 179        3PZ         0.00003   0.00001  -0.00007   0.00000   0.00050
 180        4S         -0.00073   0.00006   0.00062   0.00000   0.02541
 181        4PX         0.00000   0.00000   0.00000   0.00104   0.00000
 182        4PY        -0.00016   0.00001   0.00025   0.00000   0.00778
 183        4PZ        -0.00007  -0.00006   0.00009   0.00000  -0.00260
 184        5D 0        0.00002  -0.00001  -0.00002   0.00000  -0.00017
 185        5D+1        0.00000   0.00000   0.00000  -0.00012   0.00000
 186        5D-1       -0.00001   0.00000  -0.00002   0.00000  -0.00020
 187        5D+2        0.00002   0.00000  -0.00002   0.00000  -0.00029
 188        5D-2        0.00000   0.00000   0.00000   0.00025   0.00000
                          11        12        13        14        15
                        (B2)--O   (A1)--O   (E)--O    (E)--O    (A1)--O
     Eigenvalues --    -9.17753  -9.17750  -9.17746  -9.17746  -9.17745
   1 1   Tc 1S          0.00000   0.00051   0.00000   0.00000  -0.00056
   2        2S          0.00000  -0.00031   0.00000   0.00000  -0.00012
   3        3S          0.00001   0.03949   0.00000   0.00000  -0.01941
   4        4PX         0.00000   0.00000  -0.00024   0.00000   0.00000
   5        4PY         0.00000   0.00000   0.00000   0.00024   0.00000
   6        4PZ         0.00000   0.00001   0.00000   0.00000   0.00033
   7        5PX         0.00000   0.00000  -0.00372   0.00000   0.00000
   8        5PY         0.00000   0.00000   0.00000   0.00372   0.00000
   9        5PZ         0.00000  -0.00439   0.00000   0.00000   0.00691
  10        6PX         0.00000   0.00000  -0.00087   0.00000   0.00000
  11        6PY         0.00000   0.00000   0.00000   0.00087   0.00000
  12        6PZ         0.00000  -0.00534   0.00000   0.00000   0.00187
  13        7D 0        0.00000   0.00020   0.00000   0.00000   0.00001
  14        7D+1        0.00000   0.00000   0.00008   0.00000   0.00000
  15        7D-1        0.00000   0.00000   0.00000  -0.00008   0.00000
  16        7D+2        0.00058   0.00000   0.00000   0.00000   0.00000
  17        7D-2        0.00000   0.00000   0.00000   0.00000   0.00000
  18        8D 0        0.00000  -0.00181   0.00000   0.00000  -0.00118
  19        8D+1        0.00000   0.00000  -0.00241   0.00000   0.00000
  20        8D-1        0.00000   0.00000   0.00000   0.00241   0.00000
  21        8D+2        0.00197   0.00000   0.00000   0.00000   0.00000
  22        8D-2        0.00000   0.00000   0.00000   0.00000   0.00000
  23 2   Tc 1S          0.00000  -0.00061   0.00000   0.00000   0.00045
  24        2S          0.00000  -0.00009   0.00000   0.00000  -0.00032
  25        3S          0.00000  -0.02328   0.00000   0.00000   0.03734
  26        4PX         0.00000   0.00000  -0.00100   0.00000   0.00000
  27        4PY         0.00000   0.00000   0.00000   0.00100   0.00000
  28        4PZ         0.00000  -0.00033   0.00000   0.00000  -0.00004
  29        5PX         0.00000   0.00000  -0.01651   0.00000   0.00000
  30        5PY         0.00000   0.00000   0.00000   0.01651   0.00000
  31        5PZ         0.00000  -0.00730   0.00000   0.00000   0.00368
  32        6PX         0.00000   0.00000  -0.00169   0.00000   0.00000
  33        6PY         0.00000   0.00000   0.00000   0.00169   0.00000
  34        6PZ         0.00000  -0.00240   0.00000   0.00000   0.00512
  35        7D 0        0.00000  -0.00001   0.00000   0.00000   0.00020
  36        7D+1        0.00000   0.00000  -0.00004   0.00000   0.00000
  37        7D-1        0.00000   0.00000   0.00000   0.00004   0.00000
  38        7D+2       -0.00061   0.00000   0.00000   0.00000   0.00000
  39        7D-2        0.00000   0.00000   0.00000   0.00000   0.00000
  40        8D 0        0.00000  -0.00099   0.00000   0.00000  -0.00191
  41        8D+1        0.00000   0.00000   0.00208   0.00000   0.00000
  42        8D-1        0.00000   0.00000   0.00000  -0.00208   0.00000
  43        8D+2       -0.00057   0.00000   0.00000   0.00000   0.00000
  44        8D-2        0.00000   0.00000   0.00000   0.00000   0.00000
  45 3   Cl 1S         -0.07524   0.00724   0.00000  -0.17621  -0.14262
  46        2S          0.27079  -0.02606   0.00000   0.63414   0.51319
  47        2PX         0.00000   0.00000  -0.00003   0.00000   0.00000
  48        2PY        -0.00059   0.00005   0.00000  -0.00152  -0.00127
  49        2PZ        -0.00002  -0.00001   0.00000   0.00015   0.00013
  50        3S          0.01181  -0.00113   0.00000   0.02699   0.02140
  51        3PX         0.00000   0.00000   0.00018   0.00000   0.00000
  52        3PY        -0.00073   0.00009   0.00000  -0.00089  -0.00044
  53        3PZ         0.00057   0.00003   0.00000   0.00021   0.00012
  54        4S         -0.00691   0.00084   0.00000  -0.02145  -0.01585
  55        4PX         0.00000   0.00000   0.00101   0.00000   0.00000
  56        4PY         0.00194  -0.00005   0.00000   0.00615   0.00254
  57        4PZ        -0.00137  -0.00024   0.00000  -0.00150  -0.00102
  58        5D 0        0.00001   0.00004   0.00000   0.00019  -0.00005
  59        5D+1        0.00000   0.00000   0.00013   0.00000   0.00000
  60        5D-1        0.00003  -0.00001   0.00000   0.00009   0.00010
  61        5D+2        0.00001   0.00002   0.00000   0.00024   0.00001
  62        5D-2        0.00000   0.00000  -0.00016   0.00000   0.00000
  63 4   Cl 1S          0.07526   0.00721  -0.17621   0.00000  -0.14266
  64        2S         -0.27083  -0.02595   0.63414   0.00000   0.51333
  65        2PX        -0.00059  -0.00005   0.00152   0.00000   0.00127
  66        2PY         0.00000   0.00000   0.00000   0.00003   0.00000
  67        2PZ         0.00002  -0.00001   0.00015   0.00000   0.00013
  68        3S         -0.01181  -0.00113   0.02699   0.00000   0.02141
  69        3PX        -0.00073  -0.00009   0.00089   0.00000   0.00044
  70        3PY         0.00000   0.00000   0.00000  -0.00018   0.00000
  71        3PZ        -0.00057   0.00003   0.00021   0.00000   0.00012
  72        4S          0.00691   0.00084  -0.02145   0.00000  -0.01585
  73        4PX         0.00194   0.00005  -0.00615   0.00000  -0.00254
  74        4PY         0.00000   0.00000   0.00000  -0.00101   0.00000
  75        4PZ         0.00137  -0.00024  -0.00150   0.00000  -0.00102
  76        5D 0       -0.00001   0.00004   0.00019   0.00000  -0.00005
  77        5D+1        0.00003   0.00001  -0.00009   0.00000  -0.00010
  78        5D-1        0.00000   0.00000   0.00000  -0.00013   0.00000
  79        5D+2        0.00001  -0.00002  -0.00024   0.00000  -0.00001
  80        5D-2        0.00000   0.00000   0.00000  -0.00016   0.00000
  81 5   Cl 1S          0.07526   0.00721   0.17621   0.00000  -0.14266
  82        2S         -0.27083  -0.02595  -0.63414   0.00000   0.51333
  83        2PX         0.00059   0.00005   0.00152   0.00000  -0.00127
  84        2PY         0.00000   0.00000   0.00000   0.00003   0.00000
  85        2PZ         0.00002  -0.00001  -0.00015   0.00000   0.00013
  86        3S         -0.01181  -0.00113  -0.02699   0.00000   0.02141
  87        3PX         0.00073   0.00009   0.00089   0.00000  -0.00044
  88        3PY         0.00000   0.00000   0.00000  -0.00018   0.00000
  89        3PZ        -0.00057   0.00003  -0.00021   0.00000   0.00012
  90        4S          0.00691   0.00084   0.02145   0.00000  -0.01585
  91        4PX        -0.00194  -0.00005  -0.00615   0.00000   0.00254
  92        4PY         0.00000   0.00000   0.00000  -0.00101   0.00000
  93        4PZ         0.00137  -0.00024   0.00150   0.00000  -0.00102
  94        5D 0       -0.00001   0.00004  -0.00019   0.00000  -0.00005
  95        5D+1       -0.00003  -0.00001  -0.00009   0.00000   0.00010
  96        5D-1        0.00000   0.00000   0.00000  -0.00013   0.00000
  97        5D+2        0.00001  -0.00002   0.00024   0.00000  -0.00001
  98        5D-2        0.00000   0.00000   0.00000   0.00016   0.00000
  99 6   Cl 1S         -0.07524   0.00724   0.00000   0.17621  -0.14262
 100        2S          0.27079  -0.02606   0.00000  -0.63414   0.51319
 101        2PX         0.00000   0.00000  -0.00003   0.00000   0.00000
 102        2PY         0.00059  -0.00005   0.00000  -0.00152   0.00127
 103        2PZ        -0.00002  -0.00001   0.00000  -0.00015   0.00013
 104        3S          0.01181  -0.00113   0.00000  -0.02699   0.02140
 105        3PX         0.00000   0.00000   0.00018   0.00000   0.00000
 106        3PY         0.00073  -0.00009   0.00000  -0.00089   0.00044
 107        3PZ         0.00057   0.00003   0.00000  -0.00021   0.00012
 108        4S         -0.00691   0.00084   0.00000   0.02145  -0.01585
 109        4PX         0.00000   0.00000   0.00101   0.00000   0.00000
 110        4PY        -0.00194   0.00005   0.00000   0.00615  -0.00254
 111        4PZ        -0.00137  -0.00024   0.00000   0.00150  -0.00102
 112        5D 0        0.00001   0.00004   0.00000  -0.00019  -0.00005
 113        5D+1        0.00000   0.00000   0.00013   0.00000   0.00000
 114        5D-1       -0.00003   0.00001   0.00000   0.00009  -0.00010
 115        5D+2        0.00001   0.00002   0.00000  -0.00024   0.00001
 116        5D-2        0.00000   0.00000   0.00016   0.00000   0.00000
 117 7   Cl 1S          0.12135  -0.14266   0.00000  -0.09872  -0.00721
 118        2S         -0.43662   0.51331   0.00000   0.35516   0.02595
 119        2PX         0.00000   0.00000   0.00001   0.00000   0.00000
 120        2PY         0.00098  -0.00127   0.00000  -0.00086  -0.00008
 121        2PZ         0.00004  -0.00013   0.00000  -0.00011   0.00000
 122        3S         -0.01841   0.02141   0.00000   0.01438   0.00104
 123        3PX         0.00000   0.00000  -0.00004   0.00000   0.00000
 124        3PY         0.00103  -0.00045   0.00000  -0.00043   0.00004
 125        3PZ         0.00051  -0.00011   0.00000   0.00006  -0.00004
 126        4S          0.01063  -0.01586   0.00000  -0.00961  -0.00077
 127        4PX         0.00000   0.00000   0.00055   0.00000   0.00000
 128        4PY        -0.00316   0.00253   0.00000   0.00246   0.00020
 129        4PZ        -0.00143   0.00099   0.00000   0.00016   0.00035
 130        5D 0       -0.00007  -0.00006   0.00000   0.00012   0.00004
 131        5D+1        0.00000   0.00000  -0.00007   0.00000   0.00000
 132        5D-1        0.00006  -0.00010   0.00000   0.00002   0.00000
 133        5D+2       -0.00004   0.00001   0.00000   0.00010   0.00002
 134        5D-2        0.00000   0.00000  -0.00004   0.00000   0.00000
 135 8   Cl 1S         -0.12139  -0.14262  -0.09872   0.00000  -0.00725
 136        2S          0.43678   0.51320   0.35516   0.00000   0.02607
 137        2PX         0.00098   0.00127   0.00086   0.00000   0.00008
 138        2PY         0.00000   0.00000   0.00000  -0.00001   0.00000
 139        2PZ        -0.00004  -0.00013  -0.00011   0.00000   0.00000
 140        3S          0.01842   0.02141   0.01438   0.00000   0.00104
 141        3PX         0.00103   0.00045   0.00043   0.00000  -0.00004
 142        3PY         0.00000   0.00000   0.00000   0.00004   0.00000
 143        3PZ        -0.00051  -0.00011   0.00006   0.00000  -0.00004
 144        4S         -0.01063  -0.01586  -0.00961   0.00000  -0.00077
 145        4PX        -0.00316  -0.00253  -0.00246   0.00000  -0.00021
 146        4PY         0.00000   0.00000   0.00000  -0.00055   0.00000
 147        4PZ         0.00143   0.00099   0.00016   0.00000   0.00035
 148        5D 0        0.00007  -0.00006   0.00012   0.00000   0.00004
 149        5D+1        0.00006   0.00010  -0.00002   0.00000   0.00000
 150        5D-1        0.00000   0.00000   0.00000   0.00007   0.00000
 151        5D+2       -0.00004  -0.00001  -0.00010   0.00000  -0.00002
 152        5D-2        0.00000   0.00000   0.00000  -0.00004   0.00000
 153 9   Cl 1S         -0.12139  -0.14262   0.09872   0.00000  -0.00725
 154        2S          0.43678   0.51320  -0.35516   0.00000   0.02607
 155        2PX        -0.00098  -0.00127   0.00086   0.00000  -0.00008
 156        2PY         0.00000   0.00000   0.00000  -0.00001   0.00000
 157        2PZ        -0.00004  -0.00013   0.00011   0.00000   0.00000
 158        3S          0.01842   0.02141  -0.01438   0.00000   0.00104
 159        3PX        -0.00103  -0.00045   0.00043   0.00000   0.00004
 160        3PY         0.00000   0.00000   0.00000   0.00004   0.00000
 161        3PZ        -0.00051  -0.00011  -0.00006   0.00000  -0.00004
 162        4S         -0.01063  -0.01586   0.00961   0.00000  -0.00077
 163        4PX         0.00316   0.00253  -0.00246   0.00000   0.00021
 164        4PY         0.00000   0.00000   0.00000  -0.00055   0.00000
 165        4PZ         0.00143   0.00099  -0.00016   0.00000   0.00035
 166        5D 0        0.00007  -0.00006  -0.00012   0.00000   0.00004
 167        5D+1       -0.00006  -0.00010  -0.00002   0.00000   0.00000
 168        5D-1        0.00000   0.00000   0.00000   0.00007   0.00000
 169        5D+2       -0.00004  -0.00001   0.00010   0.00000  -0.00002
 170        5D-2        0.00000   0.00000   0.00000   0.00004   0.00000
 171 10  Cl 1S          0.12135  -0.14266   0.00000   0.09872  -0.00721
 172        2S         -0.43662   0.51331   0.00000  -0.35516   0.02595
 173        2PX         0.00000   0.00000   0.00001   0.00000   0.00000
 174        2PY        -0.00098   0.00127   0.00000  -0.00086   0.00008
 175        2PZ         0.00004  -0.00013   0.00000   0.00011   0.00000
 176        3S         -0.01841   0.02141   0.00000  -0.01438   0.00104
[...]
  78        5D-1        0.00045
  79        5D+2        0.00443
  80        5D-2        0.00385
  81 5   Cl 1S          1.99964
  82        2S          1.99733
  83        2PX         1.98985
  84        2PY         1.99173
  85        2PZ         1.99127
  86        3S          1.40687
  87        3PX         1.10683
  88        3PY         1.26611
  89        3PZ         1.22950
  90        4S          0.51942
  91        4PX         0.50003
  92        4PY         0.62006
  93        4PZ         0.60883
  94        5D 0        0.00208
  95        5D+1        0.00344
  96        5D-1        0.00045
  97        5D+2        0.00443
  98        5D-2        0.00385
  99 6   Cl 1S          1.99964
 100        2S          1.99733
 101        2PX         1.99173
 102        2PY         1.98985
 103        2PZ         1.99127
 104        3S          1.40687
 105        3PX         1.26611
 106        3PY         1.10683
 107        3PZ         1.22950
 108        4S          0.51942
 109        4PX         0.62006
 110        4PY         0.50003
 111        4PZ         0.60883
 112        5D 0        0.00208
 113        5D+1        0.00045
 114        5D-1        0.00344
 115        5D+2        0.00443
 116        5D-2        0.00385
 117 7   Cl 1S          1.99964
 118        2S          1.99733
 119        2PX         1.99173
 120        2PY         1.98985
 121        2PZ         1.99127
 122        3S          1.40687
 123        3PX         1.26597
 124        3PY         1.10691
 125        3PZ         1.22965
 126        4S          0.51937
 127        4PX         0.61985
 128        4PY         0.49998
 129        4PZ         0.60883
 130        5D 0        0.00209
 131        5D+1        0.00045
 132        5D-1        0.00344
 133        5D+2        0.00443
 134        5D-2        0.00385
 135 8   Cl 1S          1.99964
 136        2S          1.99733
 137        2PX         1.98985
 138        2PY         1.99173
 139        2PZ         1.99127
 140        3S          1.40687
 141        3PX         1.10691
 142        3PY         1.26597
 143        3PZ         1.22965
 144        4S          0.51937
 145        4PX         0.49998
 146        4PY         0.61985
 147        4PZ         0.60883
 148        5D 0        0.00209
 149        5D+1        0.00344
 150        5D-1        0.00045
 151        5D+2        0.00443
 152        5D-2        0.00385
 153 9   Cl 1S          1.99964
 154        2S          1.99733
 155        2PX         1.98985
 156        2PY         1.99173
 157        2PZ         1.99127
 158        3S          1.40687
 159        3PX         1.10691
 160        3PY         1.26597
 161        3PZ         1.22965
 162        4S          0.51937
 163        4PX         0.49998
 164        4PY         0.61985
 165        4PZ         0.60883
 166        5D 0        0.00209
 167        5D+1        0.00344
 168        5D-1        0.00045
 169        5D+2        0.00443
 170        5D-2        0.00385
 171 10  Cl 1S          1.99964
 172        2S          1.99733
 173        2PX         1.99173
 174        2PY         1.98985
 175        2PZ         1.99127
 176        3S          1.40687
 177        3PX         1.26597
 178        3PY         1.10691
 179        3PZ         1.22965
 180        4S          0.51937
 181        4PX         0.61985
 182        4PY         0.49998
 183        4PZ         0.60883
 184        5D 0        0.00209
 185        5D+1        0.00045
 186        5D-1        0.00344
 187        5D+2        0.00443
 188        5D-2        0.00385
          Condensed to atoms (all electrons):
              1          2          3          4          5          6
     1  Tc  13.980026   0.104795  -0.000940  -0.000940  -0.000940  -0.000940
     2  Tc   0.104795  13.978855   0.238315   0.238315   0.238315   0.238315
     3  Cl  -0.000940   0.238315  17.100521  -0.047690  -0.047690  -0.004330
     4  Cl  -0.000940   0.238315  -0.047690  17.100521  -0.004330  -0.047690
     5  Cl  -0.000940   0.238315  -0.047690  -0.004330  17.100521  -0.047690
     6  Cl  -0.000940   0.238315  -0.004330  -0.047690  -0.047690  17.100521
     7  Cl   0.238304  -0.001045   0.001404   0.001030   0.001030   0.000070
     8  Cl   0.238304  -0.001045   0.001030   0.001404   0.000070   0.001030
     9  Cl   0.238304  -0.001045   0.001030   0.000070   0.001404   0.001030
    10  Cl   0.238304  -0.001045   0.000070   0.001030   0.001030   0.001404
              7          8          9         10
     1  Tc   0.238304   0.238304   0.238304   0.238304
     2  Tc  -0.001045  -0.001045  -0.001045  -0.001045
     3  Cl   0.001404   0.001030   0.001030   0.000070
     4  Cl   0.001030   0.001404   0.000070   0.001030
     5  Cl   0.001030   0.000070   0.001404   0.001030
     6  Cl   0.000070   0.001030   0.001030   0.001404
     7  Cl  17.100518  -0.047714  -0.047714  -0.004352
     8  Cl  -0.047714  17.100518  -0.004352  -0.047714
     9  Cl  -0.047714  -0.004352  17.100518  -0.047714
    10  Cl  -0.004352  -0.047714  -0.047714  17.100518
 Mulliken atomic charges:
              1
     1  Tc  -0.034274
     2  Tc  -0.032729
     3  Cl  -0.241718
     4  Cl  -0.241718
     5  Cl  -0.241718
     6  Cl  -0.241718
     7  Cl  -0.241531
     8  Cl  -0.241531
     9  Cl  -0.241531
    10  Cl  -0.241531
 Sum of Mulliken atomic charges =  -2.00000
 Mulliken charges with hydrogens summed into heavy atoms:
              1
     1  Tc  -0.034274
     2  Tc  -0.032729
     3  Cl  -0.241718
     4  Cl  -0.241718
     5  Cl  -0.241718
     6  Cl  -0.241718
     7  Cl  -0.241531
     8  Cl  -0.241531
     9  Cl  -0.241531
    10  Cl  -0.241531
 Sum of Mulliken charges with hydrogens summed into heavy atoms =  -2.00000
 Electronic spatial extent (au):  <R**2>=           4282.8557
 Charge=             -2.0000 electrons
 Dipole moment (field-independent basis, Debye):
    X=              0.0000    Y=              0.0000    Z=              0.0080  Tot=              0.0080
 Quadrupole moment (field-independent basis, Debye-Ang):
   XX=           -185.4485   YY=           -185.4485   ZZ=           -186.3627
   XY=              0.0000   XZ=              0.0000   YZ=              0.0000
 Traceless Quadrupole moment (field-independent basis, Debye-Ang):
   XX=              0.3047   YY=              0.3047   ZZ=             -0.6094
   XY=              0.0000   XZ=              0.0000   YZ=              0.0000
 Octapole moment (field-independent basis, Debye-Ang**2):
  XXX=              0.0000  YYY=              0.0000  ZZZ=              0.0868  XYY=              0.0000
  XXY=              0.0000  XXZ=              0.0329  XZZ=              0.0000  YZZ=              0.0000
  YYZ=              0.0329  XYZ=              0.0000
 Hexadecapole moment (field-independent basis, Debye-Ang**3):
 XXXX=          -1943.5167 YYYY=          -1943.5167 ZZZZ=          -2460.2806 XXXY=              0.0000
 XXXZ=              0.0000 YYYX=              0.0000 YYYZ=              0.0000 ZZZX=              0.0000
 ZZZY=              0.0000 XXYY=           -608.7926 XXZZ=           -792.5672 YYZZ=           -792.5672
 XXYZ=              0.0000 YYXZ=              0.0000 ZZXY=              0.0000
 N-N= 1.918377803144D+03 E-N=-1.297066517743D+04  KE= 3.729969854946D+03
 Symmetry A1   KE= 1.675756573670D+03
 Symmetry A2   KE= 1.869716299476D+02
 Symmetry B1   KE= 9.336208256645D+02
 Symmetry B2   KE= 9.336208256645D+02
 Orbital energies and kinetic energies (alpha):
                                 1                 2
   1         (E)--O         -101.244993        137.057457
   2         (E)--O         -101.244993        137.057457
   3         (B2)--O        -101.244984        137.058815
   4         (A1)--O        -101.244974        137.060837
   5         (E)--O         -101.244941        137.060044
   6         (E)--O         -101.244941        137.060044
   7         (A1)--O        -101.244932        137.060859
   8         (B2)--O        -101.244929        137.062012
   9         (E)--O           -9.177557         21.696919
  10         (E)--O           -9.177557         21.696919
  11         (B2)--O          -9.177535         21.699889
  12         (A1)--O          -9.177500         21.706223
  13         (E)--O           -9.177461         21.706121
  14         (E)--O           -9.177461         21.706121
  15         (A1)--O          -9.177450         21.706317
  16         (B2)--O          -9.177423         21.711399
  17         (B2)--O          -6.937399         20.524061
  18         (A1)--O          -6.937359         20.535653
  19         (E)--O           -6.937355         20.534793
  20         (E)--O           -6.937355         20.534793
  21         (A1)--O          -6.937311         20.535686
  22         (E)--O           -6.937307         20.535027
  23         (E)--O           -6.937307         20.535027
  24         (B2)--O          -6.937301         20.537195
  25         (B2)--O          -6.932802         20.542206
  26         (A1)--O          -6.932797         20.543404
  27         (E)--O           -6.932788         20.544489
  28         (E)--O           -6.932788         20.544489
  29         (B2)--O          -6.932747         20.545489
  30         (A1)--O          -6.932745         20.545704
  31         (E)--O           -6.932732         20.548106
  32         (E)--O           -6.932732         20.548106
  33         (A2)--O          -6.932085         20.543831
  34         (E)--O           -6.932082         20.545613
  35         (E)--O           -6.932082         20.545613
  36         (B1)--O          -6.932062         20.549839
  37         (A2)--O          -6.932029         20.545157
  38         (E)--O           -6.932027         20.546390
  39         (E)--O           -6.932027         20.546390
  40         (B1)--O          -6.932006         20.550921
  41         (A1)--O          -2.537217          1.286860
  42         (A1)--O          -2.524388          1.333758
  43         (A1)--O          -1.511815          1.912758
  44         (E)--O           -1.483026          1.995268
  45         (E)--O           -1.483026          1.995268
  46         (E)--O           -1.472924          2.032875
  47         (E)--O           -1.472924          2.032875
  48         (A1)--O          -1.441389          2.133335
  49         (A1)--O          -0.553288          2.885943
  50         (A1)--O          -0.544428          2.995867
  51         (B2)--O          -0.531900          3.128005
  52         (E)--O           -0.530404          3.115691
  53         (E)--O           -0.530404          3.115691
  54         (B2)--O          -0.523938          3.217205
  55         (E)--O           -0.523394          3.192699
  56         (E)--O           -0.523394          3.192699
  57         (A1)--O          -0.159038          2.079673
  58         (B2)--O          -0.158730          2.212630
  59         (B2)--O          -0.142997          2.298153
  60         (E)--O           -0.142825          1.896940
  61         (E)--O           -0.142825          1.896940
  62         (B1)--O          -0.142782          1.783932
  63         (A1)--O          -0.138022          2.156715
  64         (B1)--O          -0.122651          1.919811
  65         (A1)--O          -0.111871          1.859184
  66         (E)--O           -0.104366          2.216439
  67         (E)--O           -0.104366          2.216439
  68         (E)--O           -0.093567          2.109218
  69         (E)--O           -0.093567          2.109218
  70         (A1)--O          -0.072973          2.038953
  71         (A1)--O          -0.062179          2.130652
  72         (B2)--O          -0.058505          2.253588
  73         (E)--O           -0.047668          2.313903
  74         (E)--O           -0.047668          2.313903
  75         (E)--O           -0.040639          2.402069
  76         (E)--O           -0.040639          2.402069
  77         (E)--O           -0.036656          2.422500
  78         (E)--O           -0.036656          2.422500
  79         (B2)--O          -0.018864          2.579260
  80         (A2)--O          -0.017031          2.562675
  81         (A2)--O          -0.010606          2.635799
  82         (E)--O           -0.004869          2.337851
  83         (E)--O           -0.004869          2.337851
  84         (B1)--O           0.028446          2.393849
  85         (B1)--V           0.082454          2.486657
  86         (E)--V            0.138803          2.734875
  87         (E)--V            0.138803          2.734875
  88         (A1)--V           0.151692          2.456885
  89         (B2)--V           0.186062          2.845526
  90         (B2)--V           0.200851          2.921344
  91         (A1)--V           0.216528          0.256301
  92         (A1)--V           0.238223          0.346392
  93         (E)--V            0.255741          0.334259
  94         (E)--V            0.255741          0.334259
  95         (E)--V            0.258104          0.409595
  96         (E)--V            0.258104          0.409595
  97         (A1)--V           0.287587          1.547929
  98         (A1)--V           0.335758          0.798325
  99         (A1)--V           0.387056          1.449076
 100         (E)--V            0.464623          1.524686
 101         (E)--V            0.464623          1.524686
 102         (A1)--V           0.475585          0.947250
 103         (A1)--V           0.529775          2.211992
 104         (E)--V            0.557621          1.401938
 105         (E)--V            0.557621          1.401938
 106         (B2)--V           0.598773          2.393110
 107         (B2)--V           0.598863          2.260177
 108         (B1)--V           0.607342          1.617939
 109         (B1)--V           0.627577          1.770057
 110         (A1)--V           0.640017          2.058809
 111         (E)--V            0.645137          2.035702
 112         (E)--V            0.645137          2.035702
 113         (B1)--V           0.662467          2.927289
 114         (B2)--V           0.696512          2.444172
 115         (E)--V            0.698807          1.610414
 116         (E)--V            0.698807          1.610414
 117         (E)--V            0.702570          2.900263
 118         (E)--V            0.702570          2.900263
 119         (A1)--V           0.735858          2.836548
 120         (B1)--V           0.739284          2.908935
 121         (E)--V            0.746780          2.995503
 122         (E)--V            0.746780          2.995503
 123         (E)--V            0.747016          2.685622
 124         (E)--V            0.747016          2.685622
 125         (E)--V            0.785339          2.762009
 126         (E)--V            0.785339          2.762009
 127         (A1)--V           0.790449          3.176555
 128         (A2)--V           0.799256          2.690907
 129         (E)--V            0.810423          2.763111
 130         (E)--V            0.810423          2.763111
 131         (B2)--V           0.819665          2.487000
 132         (B2)--V           0.831302          2.686085
 133         (A1)--V           0.839276          2.777722
 134         (E)--V            0.846731          2.844083
 135         (E)--V            0.846731          2.844083
 136         (A2)--V           0.855826          2.744393
 137         (A1)--V           0.863844          2.745946
 138         (B2)--V           0.898131          2.881054
 139         (E)--V            0.900116          2.668020
 140         (E)--V            0.900116          2.668020
 141         (B2)--V           0.910701          2.706722
 142         (A1)--V           0.930581          2.664303
 143         (A1)--V           0.944472          2.781575
 144         (E)--V            1.066378          2.860114
 145         (E)--V            1.066378          2.860114
 146         (B2)--V           1.133811          2.639216
 147         (A2)--V           1.140312          2.629634
 148         (E)--V            1.140441          2.657525
 149         (E)--V            1.140441          2.657525
 150         (B1)--V           1.142529          2.625594
 151         (B2)--V           1.142726          2.651248
 152         (A2)--V           1.144331          2.625988
 153         (B1)--V           1.146818          2.631369
 154         (E)--V            1.147003          2.643177
 155         (E)--V            1.147003          2.643177
 156         (E)--V            1.149905          2.650230
 157         (E)--V            1.149905          2.650230
 158         (A1)--V           1.150763          2.658216
 159         (A1)--V           1.176712          2.734643
 160         (E)--V            1.178928          2.734555
 161         (E)--V            1.178928          2.734555
 162         (B2)--V           1.180176          2.842050
 163         (A2)--V           1.182788          2.752881
 164         (E)--V            1.194070          2.802117
 165         (E)--V            1.194070          2.802117
 166         (A2)--V           1.199131          2.829596
 167         (E)--V            1.212749          3.177054
 168         (E)--V            1.212749          3.177054
 169         (A1)--V           1.213472          2.859385
 170         (B2)--V           1.253992          3.014260
 171         (A1)--V           1.261883          2.695335
 172         (A1)--V           1.269394          2.720663
 173         (E)--V            1.289782          2.882956
 174         (E)--V            1.289782          2.882956
 175         (B1)--V           1.332370          2.739929
 176         (B2)--V           1.355499          3.905594
 177         (B2)--V           1.430095          2.822994
 178         (E)--V            1.439650          2.850299
 179         (E)--V            1.439650          2.850300
 180         (E)--V            1.440708          2.785077
 181         (E)--V            1.440708          2.785077
 182         (A1)--V           1.451899          2.965569
 183         (B1)--V           1.521637          2.958034
 184         (E)--V            1.593338          3.183898
 185         (E)--V            1.593338          3.183898
 186         (B2)--V           1.803640          3.739581
 187         (A1)--V           8.928506          2.601935
 188         (A1)--V          18.076474          4.185340
 Total kinetic energy from orbitals= 3.729969854946D+03
 No NMR shielding tensors so no spin-rotation constants.
 Leave Link  601 at Tue May  5 12:47:52 2015, MaxMem= 1073741824 cpu:       2.6
 (Enter /usr/g09/l9999.exe)
 1\1\GINC-LSQC07\SP\RB3LYP\GenECP\Cl8Tc2(2-)\LITAO\05-May-2015\0\\#p b3
 lyp/genecp pop=full\\Title Card Required\\-2,1\Tc,0,0.,0.,0.\Tc,0,0.,0
 .,2.24015797\Cl,0,1.57,1.57,2.782\Cl,0,1.57,-1.57,2.782\Cl,0,-1.57,1.5
 7,2.782\Cl,0,-1.57,-1.57,2.782\Cl,0,1.57,1.57,-0.54\Cl,0,1.57,-1.57,-0
 .54\Cl,0,-1.57,1.57,-0.54\Cl,0,-1.57,-1.57,-0.54\\Version=EM64L-G09Rev
 A.01\State=1-A1\HF=-3842.0619251\RMSD=5.775e-09\Dipole=0.,0.,-0.003138
 \Quadrupole=0.2265466,0.2265466,-0.4530933,0.,0.,0.\PG=C04V [C4(Tc1Tc1
 ),2SGV(Cl4)]\\@


 CHARLIE BROWN..'I CAN'T GET THAT STUPID KITE IN THE   
 AIR... I CAN'T... I C A N N O T...'                          
 LUCY..'OH COME NOW CHARLIE BROWN...THAT'S NO WAY TO TALK...  
 THE TROUBLE WITH YOU IS YOU DON'T BELIEVE IN YOURSELF... YOU 
 DON'T BELIEVE IN YOUR OWN ABILITIES...  YOU'VE GOT TO SAY TO 
 YOURSELF...'I BELIEVE I CAN FLY THIS KITE.'... GO AHEAD SAY  
 IT....'
 CHARLIE BROWN..'I BELIEVE THAT I CAN FLY THIS STUPID  
 KITE.....I BELIEVE THAT I CAN FLY THIS KITE........          
 I  A C T U A L L Y  B E L I E V E  T H A T  I  C A N ******' 
 LUCY..'I'LL BET YOU TEN-TO-ONE YOU'RE WRONG.......'    SCHULZ
 Job cpu time:  0 days  0 hours  1 minutes 39.9 seconds.
 File lengths (MBytes):  RWF=     19 Int=      0 D2E=      0 Chk=      2 Scr=      1
 Normal termination of Gaussian 09 at Tue May  5 12:47:52 2015.
