 Entering Gaussian System, Link 0=g09
 Input=tc2cl8-45.gjf
 Output=tc2cl8-45.log
 Initial command:
 /usr/g09/l1.exe /scratch/litao/gaussian/Gau-2496.inp -scrdir=/scratch/litao/gaussian/
 Entering Link 1 = /usr/g09/l1.exe PID=      2497.
  
 Copyright (c) 1988,1990,1992,1993,1995,1998,2003,2009, Gaussian, Inc.
                  All Rights Reserved.
  
 This is part of the Gaussian(R) 09 program.  It is based on
 the Gaussian(R) 03 system (copyright 2003, Gaussian, Inc.),
 the Gaussian(R) 98 system (copyright 1998, Gaussian, Inc.),
 the Gaussian(R) 94 system (copyright 1995, Gaussian, Inc.),
 the Gaussian 92(TM) system (copyright 1992, Gaussian, Inc.),
 the Gaussian 90(TM) system (copyright 1990, Gaussian, Inc.),
 the Gaussian 88(TM) system (copyright 1988, Gaussian, Inc.),
 the Gaussian 86(TM) system (copyright 1986, Carnegie Mellon
 University), and the Gaussian 82(TM) system (copyright 1983,
 Carnegie Mellon University). Gaussian is a federally registered
 trademark of Gaussian, Inc.
  
 This software contains proprietary and confidential information,
 including trade secrets, belonging to Gaussian, Inc.
  
 This software is provided under written license and may be
 used, copied, transmitted, or stored only in accord with that
 written license.
  
 The following legend is applicable only to US Government
 contracts under FAR:
  
                    RESTRICTED RIGHTS LEGEND
  
 Use, reproduction and disclosure by the US Government is
 subject to restrictions as set forth in subparagraphs (a)
 and (c) of the Commercial Computer Software - Restricted
 Rights clause in FAR 52.227-19.
  
 Gaussian, Inc.
 340 Quinnipiac St., Bldg. 40, Wallingford CT 06492
  
  
 ---------------------------------------------------------------
 Warning -- This program may not be used in any manner that
 competes with the business of Gaussian, Inc. or will provide
 assistance to any competitor of Gaussian, Inc.  The licensee
 of this program is prohibited from giving any competitor of
 Gaussian, Inc. access to this program.  By using this program,
 the user acknowledges that Gaussian, Inc. is engaged in the
 business of creating and licensing software in the field of
 computational chemistry and represents and warrants to the
 licensee that it is not a competitor of Gaussian, Inc. and that
 it will not use this program in any manner prohibited above.
 ---------------------------------------------------------------
  

 Cite this work as:
 Gaussian 09, Revision A.01,
 M. J. Frisch, G. W. Trucks, H. B. Schlegel, G. E. Scuseria, 
 M. A. Robb, J. R. Cheeseman, G. Scalmani, V. Barone, B. Mennucci, 
 G. A. Petersson, H. Nakatsuji, M. Caricato, X. Li, H. P. Hratchian, 
 A. F. Izmaylov, J. Bloino, G. Zheng, J. L. Sonnenberg, M. Hada, 
 M. Ehara, K. Toyota, R. Fukuda, J. Hasegawa, M. Ishida, T. Nakajima, 
 Y. Honda, O. Kitao, H. Nakai, T. Vreven, J. A. Montgomery, Jr., 
 J. E. Peralta, F. Ogliaro, M. Bearpark, J. J. Heyd, E. Brothers, 
 K. N. Kudin, V. N. Staroverov, R. Kobayashi, J. Normand, 
 K. Raghavachari, A. Rendell, J. C. Burant, S. S. Iyengar, J. Tomasi, 
 M. Cossi, N. Rega, J. M. Millam, M. Klene, J. E. Knox, J. B. Cross, 
 V. Bakken, C. Adamo, J. Jaramillo, R. Gomperts, R. E. Stratmann, 
 O. Yazyev, A. J. Austin, R. Cammi, C. Pomelli, J. W. Ochterski, 
 R. L. Martin, K. Morokuma, V. G. Zakrzewski, G. A. Voth, 
 P. Salvador, J. J. Dannenberg, S. Dapprich, A. D. Daniels, 
 O. Farkas, J. B. Foresman, J. V. Ortiz, J. Cioslowski, 
 and D. J. Fox, Gaussian, Inc., Wallingford CT, 2009.
 
 ******************************************
 Gaussian 09:  EM64L-G09RevA.01  8-May-2009
                 5-May-2015 
 ******************************************
 %nprocshared=8
 Will use up to    8 processors via shared memory.
 %mem=8GB
 %chk=tc2cl8-45.chk
 ------------------------
 #p b3lyp/genecp pop=full
 ------------------------
 1/38=1/1;
 2/12=2,17=6,18=5,40=1/2;
 3/5=7,11=2,16=1,17=8,25=1,30=1,74=-5/1,2,3;
 4//1;
 5/5=2,38=5/2;
 6/7=3,28=1/1;
 99/5=1,9=1/99;
 Leave Link    1 at Tue May  5 12:47:23 2015, MaxMem= 1073741824 cpu:       0.1
 (Enter /usr/g09/l101.exe)
 -------------------
 Title Card Required
 -------------------
 Symbolic Z-matrix:
 Charge = -2 Multiplicity = 1
 Tc                    0.        0.        0. 
 Tc                    0.        0.        2.24016 
 Cl                    0.84968   2.0513    2.782 
 Cl                    2.0513   -0.84968   2.782 
 Cl                   -2.0513    0.84968   2.782 
 Cl                   -0.84968  -2.0513    2.782 
 Cl                    2.0513    0.84968  -0.54 
 Cl                    0.84968  -2.0513   -0.54 
 Cl                   -0.84968   2.0513   -0.54 
 Cl                   -2.0513   -0.84968  -0.54 
 
 NAtoms=     10 NQM=     10 NQMF=      0 NMic=      0 NMicF=      0 NTot=     10.
                    Isotopes and Nuclear Properties:
 (Nuclear quadrupole moments (NQMom) in fm**2, nuclear magnetic moments (NMagM)
  in nuclear magnetons)

  Atom         1           2           3           4           5           6           7           8           9          10
 IAtWgt=          99          99          35          35          35          35          35          35          35          35
 AtmWgt=  98.9063000  98.9063000  34.9688527  34.9688527  34.9688527  34.9688527  34.9688527  34.9688527  34.9688527  34.9688527
 NucSpn=           0           0           3           3           3           3           3           3           3           3
 AtZEff=   0.0000000   0.0000000   0.0000000   0.0000000   0.0000000   0.0000000   0.0000000   0.0000000   0.0000000   0.0000000
 NQMom=    0.0000000   0.0000000  -8.1650000  -8.1650000  -8.1650000  -8.1650000  -8.1650000  -8.1650000  -8.1650000  -8.1650000
 NMagM=    0.0000000   0.0000000   0.8218740   0.8218740   0.8218740   0.8218740   0.8218740   0.8218740   0.8218740   0.8218740
 Leave Link  101 at Tue May  5 12:47:23 2015, MaxMem= 1073741824 cpu:       0.1
 (Enter /usr/g09/l202.exe)
                          Input orientation:                          
 ---------------------------------------------------------------------
 Center     Atomic      Atomic             Coordinates (Angstroms)
 Number     Number       Type             X           Y           Z
 ---------------------------------------------------------------------
      1         43           0        0.000000    0.000000    0.000000
      2         43           0        0.000000    0.000000    2.240158
      3         17           0        0.849678    2.051304    2.782000
      4         17           0        2.051304   -0.849678    2.782000
      5         17           0       -2.051304    0.849678    2.782000
      6         17           0       -0.849678   -2.051304    2.782000
      7         17           0        2.051304    0.849678   -0.540000
      8         17           0        0.849678   -2.051304   -0.540000
      9         17           0       -0.849678    2.051304   -0.540000
     10         17           0       -2.051304   -0.849678   -0.540000
 ---------------------------------------------------------------------
                    Distance matrix (angstroms):
                    1          2          3          4          5
     1  Tc   0.000000
     2  Tc   2.240158   0.000000
     3  Cl   3.559399   2.285474   0.000000
     4  Cl   3.559399   2.285474   3.140000   0.000000
     5  Cl   3.559399   2.285474   3.140000   4.440631   0.000000
     6  Cl   3.559399   2.285474   4.440631   3.140000   3.140000
     7  Cl   2.285038   3.557960   3.731420   3.731420   5.278927
     8  Cl   2.285038   3.557960   5.278927   3.731420   5.278927
     9  Cl   2.285038   3.557960   3.731420   5.278927   3.731420
    10  Cl   2.285038   3.557960   5.278927   5.278927   3.731420
                    6          7          8          9         10
     6  Cl   0.000000
     7  Cl   5.278927   0.000000
     8  Cl   3.731420   3.140000   0.000000
     9  Cl   5.278927   3.140000   4.440631   0.000000
    10  Cl   3.731420   4.440631   3.140000   3.140000   0.000000
 Stoichiometry    Cl8Tc2(2-)
 Framework group  C4V[C4(TcTc),2SGV(Cl2),2SGD(Cl2)]
 Deg. of freedom     5
 Full point group                 C4V     NOp   8
 Largest Abelian subgroup         C2V     NOp   4
 Largest concise Abelian subgroup C2V     NOp   4
                         Standard orientation:                         
 ---------------------------------------------------------------------
 Center     Atomic      Atomic             Coordinates (Angstroms)
 Number     Number       Type             X           Y           Z
 ---------------------------------------------------------------------
      1         43           0        0.000000    0.000000    1.120643
      2         43           0        0.000000    0.000000   -1.119515
      3         17           0        1.570000    1.570000   -1.661357
      4         17           0       -1.570000    1.570000   -1.661357
      5         17           0        1.570000   -1.570000   -1.661357
      6         17           0       -1.570000   -1.570000   -1.661357
      7         17           0        0.000000    2.220315    1.660643
      8         17           0       -2.220315    0.000000    1.660643
      9         17           0        2.220315    0.000000    1.660643
     10         17           0        0.000000   -2.220315    1.660643
 ---------------------------------------------------------------------
 Rotational constants (GHZ):      0.3664515      0.2956229      0.2956229
 Leave Link  202 at Tue May  5 12:47:23 2015, MaxMem= 1073741824 cpu:       0.0
 (Enter /usr/g09/l301.exe)
 General basis read from cards:  (5D, 7F)
 Centers:   3  4  5  6  7  8  9 10
 6-31g**
 ****
 Centers:   1  2
 LanL2DZ
 ****
 Ernie: Thresh=  0.10000D-02 Tol=  0.10000D-05 Strict=F.
 Ernie:  2 primitive shells out of 172 were deleted.
 ======================================================================================================
                                       Pseudopotential Parameters
 ======================================================================================================
  Center     Atomic      Valence      Angular      Power
  Number     Number     Electrons     Momentum     of R      Exponent        Coefficient   SO-Coeffient
 ======================================================================================================
    1         43           15
                                      F and up 
                                                     0      501.1199409       -0.04921150    0.00000000
                                                     1      150.2468844      -20.14673080    0.00000000
                                                     2       46.7097914     -105.57928800    0.00000000
                                                     2       13.9339014      -41.59011970    0.00000000
                                                     2        4.9854069       -3.94151110    0.00000000
                                      S - F
                                                     0      108.1775995        2.82223740    0.00000000
                                                     1       23.6594351       46.73307080    0.00000000
                                                     2        5.7814977       90.53186570    0.00000000
                                      P - F
                                                     0       63.3062014        4.93907820    0.00000000
                                                     1       23.6935532       26.92296310    0.00000000
                                                     2       25.0525854      128.50797960    0.00000000
                                                     2        5.0717084       63.74902500    0.00000000
                                      D - F
                                                     0      102.7721397        2.99219020    0.00000000
                                                     1       45.6713756       28.18213790    0.00000000
                                                     2       48.2611997       89.05484650    0.00000000
                                                     2       15.7089115      121.18943250    0.00000000
                                                     2        3.9484576       25.58669730    0.00000000
    2         43           15
                                      F and up 
                                                     0      501.1199409       -0.04921150    0.00000000
                                                     1      150.2468844      -20.14673080    0.00000000
                                                     2       46.7097914     -105.57928800    0.00000000
                                                     2       13.9339014      -41.59011970    0.00000000
                                                     2        4.9854069       -3.94151110    0.00000000
                                      S - F
                                                     0      108.1775995        2.82223740    0.00000000
                                                     1       23.6594351       46.73307080    0.00000000
                                                     2        5.7814977       90.53186570    0.00000000
                                      P - F
                                                     0       63.3062014        4.93907820    0.00000000
                                                     1       23.6935532       26.92296310    0.00000000
                                                     2       25.0525854      128.50797960    0.00000000
                                                     2        5.0717084       63.74902500    0.00000000
                                      D - F
                                                     0      102.7721397        2.99219020    0.00000000
                                                     1       45.6713756       28.18213790    0.00000000
                                                     2       48.2611997       89.05484650    0.00000000
                                                     2       15.7089115      121.18943250    0.00000000
                                                     2        3.9484576       25.58669730    0.00000000
    3         17
                                   No pseudopotential on this center.
    4         17
                                   No pseudopotential on this center.
    5         17
                                   No pseudopotential on this center.
    6         17
                                   No pseudopotential on this center.
    7         17
                                   No pseudopotential on this center.
    8         17
                                   No pseudopotential on this center.
    9         17
                                   No pseudopotential on this center.
   10         17
                                   No pseudopotential on this center.
 ======================================================================================================
 There are    64 symmetry adapted basis functions of A1  symmetry.
 There are    32 symmetry adapted basis functions of A2  symmetry.
 There are    46 symmetry adapted basis functions of B1  symmetry.
 There are    46 symmetry adapted basis functions of B2  symmetry.
 Integral buffers will be    131072 words long.
 Raffenetti 2 integral format.
 Two-electron integral symmetry is turned on.
   188 basis functions,   514 primitive gaussians,   200 cartesian basis functions
    84 alpha electrons       84 beta electrons
       nuclear repulsion energy      1915.9203419415 Hartrees.
 IExCor=  402 DFT=T Ex+Corr=B3LYP ExCW=0 ScaHFX=  0.200000
 ScaDFX=  0.800000  0.720000  1.000000  0.810000 ScalE2=  1.000000  1.000000
 IRadAn=      0 IRanWt=     -1 IRanGd=            0 ICorTp=0
 NAtoms=   10 NActive=   10 NUniq=    4 SFac= 3.00D+00 NAtFMM=   80 NAOKFM=F Big=F
 Leave Link  301 at Tue May  5 12:47:23 2015, MaxMem= 1073741824 cpu:       0.1
 (Enter /usr/g09/l302.exe)
 NPDir=0 NMtPBC=     1 NCelOv=     1 NCel=       1 NClECP=     1 NCelD=      1
         NCelK=      1 NCelE2=     1 NClLst=     1 CellRange=     0.0.
 One-electron integrals computed using PRISM.
 One-electron integral symmetry used in STVInt
   8 Symmetry operations used in ECPInt.
 ECPInt:  NShTT=    1596 NPrTT=   14825 LenC2=    1485 LenP2D=    8877.
 LDataN:  DoStor=T MaxTD1= 5 Len=  102
 NBasis=   188 RedAO= T  NBF=    64    32    46    46
 NBsUse=   188 1.00D-06 NBFU=    64    32    46    46
 Precomputing XC quadrature grid using
 IXCGrd= 2 IRadAn=           0 IRanWt=          -1 IRanGd=           0 AccXCQ= 1.00D-10.
 Defaulting to unpruned grid for atomic number  43.
 NRdTot=     630 NPtTot=       99784 NUsed=      104337 NTot=      104369
 NSgBfM=   196   196   196   196   196 NAtAll=    10    10.
 Leave Link  302 at Tue May  5 12:47:23 2015, MaxMem= 1073741824 cpu:       2.1
 (Enter /usr/g09/l303.exe)
 DipDrv:  MaxL=1.
 Leave Link  303 at Tue May  5 12:47:23 2015, MaxMem= 1073741824 cpu:       0.1
 (Enter /usr/g09/l401.exe)
 Harris functional with IExCor=  402 diagonalized for initial guess.
 ExpMin= 2.46D-02 ExpMax= 2.52D+04 ExpMxC= 3.78D+03 IAcc=3 IRadAn=         0 AccDes= 0.00D+00
 HarFok:  IExCor=  402 AccDes= 0.00D+00 IRadAn=         0 IDoV= 1
 ScaDFX=  1.000000  1.000000  1.000000  1.000000
 Defaulting to unpruned grid for atomic number  43.
 Defaulting to unpruned grid for atomic number  43.
 Defaulting to unpruned grid for atomic number  43.
 Defaulting to unpruned grid for atomic number  43.
 Defaulting to unpruned grid for atomic number  43.
 Defaulting to unpruned grid for atomic number  43.
 Defaulting to unpruned grid for atomic number  43.
 Defaulting to unpruned grid for atomic number  43.
 FoFCou: FMM=F IPFlag=           0 FMFlag=      100000 FMFlg1=           0
         NFxFlg=           0 DoJE=T BraDBF=F KetDBF=T FulRan=T
         Omega=  0.000000  0.000000  1.000000  0.000000  0.000000 ICntrl=     500 IOpCl=  0
         NMat0=    1 NMatS0=    1 NMatT0=    0 NMatD0=    1 NMtDS0=    0 NMtDT0=    0
         I1Cent=           4 NGrid=           0.
 Petite list used in FoFCou.
 Harris En= -3848.95662134102    
 Initial guess orbital symmetries:
       Occupied  (E) (E) (A1) (B2) (E) (E) (A1) (B1) (E) (E) (A1)
                 (E) (E) (B2) (A1) (B1) (B2) (A1) (E) (E) (B1)
                 (A1) (E) (E) (A1) (E) (E) (B2) (B1) (A2) (E) (E)
                 (A1) (A2) (E) (E) (E) (E) (B1) (B2) (A1) (A1)
                 (A1) (E) (E) (E) (E) (A1) (A1) (A1) (B2) (B1)
                 (E) (E) (E) (E) (A1) (B1) (B2) (A1) (B2) (B1)
                 (E) (E) (A1) (E) (E) (E) (E) (A1) (E) (E) (B2)
                 (B1) (E) (E) (E) (E) (A2) (A2) (E) (E) (A1) (B1)
       Virtual   (B2) (A1) (E) (E) (B1) (B2) (A1) (A1) (E) (E)
                 (A1) (E) (E) (A1) (A1) (E) (E) (A1) (E) (E) (A1)
                 (B1) (B2) (B2) (B1) (E) (E) (E) (E) (B2) (B1)
                 (A1) (E) (E) (A1) (E) (E) (E) (E) (A2) (E) (E)
                 (B1) (B2) (A1) (A1) (E) (E) (A2) (B2) (B1) (E)
                 (E) (A1) (E) (E) (A1) (B1) (B2) (E) (E) (A1) (E)
                 (E) (A2) (B2) (B1) (A2) (E) (E) (E) (E) (B2) (B1)
                 (A1) (E) (E) (A1) (A2) (E) (E) (E) (E) (A2) (A1)
                 (A1) (B1) (B2) (A1) (E) (E) (E) (E) (B1) (B2)
                 (E) (E) (A1) (E) (E) (B1) (B2) (A1) (A1)
 The electronic state of the initial guess is 1-A1.
 Leave Link  401 at Tue May  5 12:47:23 2015, MaxMem= 1073741824 cpu:       1.8
 (Enter /usr/g09/l502.exe)
 Closed shell SCF:
 Requested convergence on RMS density matrix=1.00D-08 within 128 cycles.
 Requested convergence on MAX density matrix=1.00D-06.
 Requested convergence on             energy=1.00D-06.
 No special actions if energy rises.
 Using DIIS extrapolation, IDIIS=  1040.
 Integral symmetry usage will be decided dynamically.
       104234 words used for storage of precomputed grid.
 Keep R1 ints in memory in canonical form, NReq=206321664.
 IEnd=      246400 IEndB=      246400 NGot=  1073741824 MDV=   871537187
 LenX=   871537187 LenY=   871496746
 Symmetry not used in FoFDir.
 MinBra= 0 MaxBra= 2 Meth= 1.
 IRaf=       0 NMat=   1 IRICut=       1 DoRegI=T DoRafI=F ISym2E= 0 JSym2E=0.

 Cycle   1  Pass 1  IDiag  1:
 Defaulting to unpruned grid for atomic number  43.
 Defaulting to unpruned grid for atomic number  43.
 Defaulting to unpruned grid for atomic number  43.
 Defaulting to unpruned grid for atomic number  43.
 Defaulting to unpruned grid for atomic number  43.
 Defaulting to unpruned grid for atomic number  43.
 Defaulting to unpruned grid for atomic number  43.
 Defaulting to unpruned grid for atomic number  43.
 E= -3840.24317292232    
 DIIS: error= 8.24D-02 at cycle   1 NSaved=   1.
 NSaved= 1 IEnMin= 1 EnMin= -3840.24317292232     IErMin= 1 ErrMin= 8.24D-02
 ErrMax= 8.24D-02 EMaxC= 1.00D-01 BMatC= 1.86D+00 BMatP= 1.86D+00
 IDIUse=3 WtCom= 1.76D-01 WtEn= 8.24D-01
 Coeff-Com:  0.100D+01
 Coeff-En:   0.100D+01
 Coeff:      0.100D+01
 Gap=    -0.232 Goal=   None    Shift=    0.000
 GapD=   -0.232 DampG=0.250 DampE=0.250 DampFc=0.1250 IDamp=-1.
 Damping current iteration by 1.25D-01
 RMSDP=2.59D-02 MaxDP=1.08D+00              OVMax= 8.74D-01

 Cycle   2  Pass 1  IDiag  1:
 Density matrix breaks symmetry, PCut= 1.00D-04
 Density has only Abelian symmetry.
 E= -3840.87556153289     Delta-E=       -0.632388610562 Rises=F Damp=T
 DIIS: error= 5.99D-02 at cycle   2 NSaved=   2.
 NSaved= 2 IEnMin= 2 EnMin= -3840.87556153289     IErMin= 2 ErrMin= 5.99D-02
 ErrMax= 5.99D-02 EMaxC= 1.00D-01 BMatC= 6.69D-01 BMatP= 1.86D+00
 IDIUse=3 WtCom= 4.01D-01 WtEn= 5.99D-01
 Coeff-Com: -0.100D+01 0.200D+01
 Coeff-En:   0.000D+00 0.100D+01
 Coeff:     -0.403D+00 0.140D+01
 Gap=     0.117 Goal=   None    Shift=    0.000
 RMSDP=1.31D-02 MaxDP=7.45D-01 DE=-6.32D-01 OVMax= 7.38D-01

 Cycle   3  Pass 1  IDiag  1:
 Density matrix breaks symmetry, PCut= 1.00D-04
 Density has only Abelian symmetry.
 E= -3839.17510172262     Delta-E=        1.700459810267 Rises=F Damp=F
 DIIS: error= 1.36D-01 at cycle   3 NSaved=   3.
 NSaved= 3 IEnMin= 2 EnMin= -3840.87556153289     IErMin= 2 ErrMin= 5.99D-02
 ErrMax= 1.36D-01 EMaxC= 1.00D-01 BMatC= 2.36D+00 BMatP= 6.69D-01
 IDIUse=2 WtCom= 0.00D+00 WtEn= 1.00D+00
 EnCoef did    11 forward-backward iterations
 Coeff-En:   0.496D+00 0.116D+00 0.388D+00
 Coeff:      0.496D+00 0.116D+00 0.388D+00
 Gap=     0.015 Goal=   None    Shift=    0.000
 RMSDP=1.56D-02 MaxDP=3.53D-01 DE= 1.70D+00 OVMax= 9.92D-01

 Cycle   4  Pass 1  IDiag  1:
 Density matrix breaks symmetry, PCut= 1.00D-04
 Density has only Abelian symmetry.
 E= -3836.65819803256     Delta-E=        2.516903690058 Rises=F Damp=F
 DIIS: error= 1.78D-01 at cycle   4 NSaved=   4.
 NSaved= 4 IEnMin= 2 EnMin= -3840.87556153289     IErMin= 2 ErrMin= 5.99D-02
 ErrMax= 1.78D-01 EMaxC= 1.00D-01 BMatC= 3.37D+00 BMatP= 6.69D-01
 IDIUse=2 WtCom= 0.00D+00 WtEn= 1.00D+00
 EnCoef did   100 forward-backward iterations
 Coeff-En:   0.540D+00 0.243D-01 0.285D+00 0.151D+00
 Coeff:      0.540D+00 0.243D-01 0.285D+00 0.151D+00
 Gap=     0.001 Goal=   None    Shift=    0.000
 RMSDP=1.48D-02 MaxDP=6.94D-01 DE= 2.52D+00 OVMax= 6.24D-01

 Cycle   5  Pass 1  IDiag  1:
 Density matrix breaks symmetry, PCut= 1.00D-04
 Density has only Abelian symmetry.
 E= -3840.70544104286     Delta-E=       -4.047243010302 Rises=F Damp=F
 DIIS: error= 1.15D-01 at cycle   5 NSaved=   5.
 NSaved= 5 IEnMin= 2 EnMin= -3840.87556153289     IErMin= 2 ErrMin= 5.99D-02
 ErrMax= 1.15D-01 EMaxC= 1.00D-01 BMatC= 1.45D+00 BMatP= 6.69D-01
 IDIUse=2 WtCom= 0.00D+00 WtEn= 1.00D+00
 EnCoef did   100 forward-backward iterations
 Coeff-En:   0.283D+00 0.876D-02 0.152D+00 0.187D+00 0.369D+00
 Coeff:      0.283D+00 0.876D-02 0.152D+00 0.187D+00 0.369D+00
 Gap=    -0.107 Goal=   None    Shift=    0.000
 RMSDP=1.09D-02 MaxDP=7.79D-01 DE=-4.05D+00 OVMax= 8.78D-01

 Cycle   6  Pass 1  IDiag  1:
 Density matrix breaks symmetry, PCut= 1.00D-04
 Density has only Abelian symmetry.
 E= -3838.73409542579     Delta-E=        1.971345617072 Rises=F Damp=F
 DIIS: error= 1.72D-01 at cycle   6 NSaved=   6.
 NSaved= 6 IEnMin= 2 EnMin= -3840.87556153289     IErMin= 2 ErrMin= 5.99D-02
 ErrMax= 1.72D-01 EMaxC= 1.00D-01 BMatC= 2.69D+00 BMatP= 6.69D-01
 IDIUse=2 WtCom= 0.00D+00 WtEn= 1.00D+00
 EnCoef did     1 forward-backward iterations
 Coeff-En:   0.000D+00 0.000D+00 0.263D-02 0.000D+00 0.622D+00 0.376D+00
 Coeff:      0.000D+00 0.000D+00 0.263D-02 0.000D+00 0.622D+00 0.376D+00
 Gap=     0.067 Goal=   None    Shift=    0.000
 RMSDP=6.71D-03 MaxDP=2.63D-01 DE= 1.97D+00 OVMax= 3.54D-01

 Cycle   7  Pass 1  IDiag  1:
 Density matrix breaks symmetry, PCut= 1.00D-04
 Density has only Abelian symmetry.
 E= -3841.13149260782     Delta-E=       -2.397397182031 Rises=F Damp=F
 DIIS: error= 1.03D-01 at cycle   7 NSaved=   7.
 NSaved= 7 IEnMin= 7 EnMin= -3841.13149260782     IErMin= 2 ErrMin= 5.99D-02
 ErrMax= 1.03D-01 EMaxC= 1.00D-01 BMatC= 8.88D-01 BMatP= 6.69D-01
 IDIUse=2 WtCom= 0.00D+00 WtEn= 1.00D+00
 EnCoef did   100 forward-backward iterations
 Coeff-En:   0.151D-01 0.000D+00 0.000D+00 0.000D+00 0.494D+00 0.169D+00
 Coeff-En:   0.321D+00
 Coeff:      0.151D-01 0.000D+00 0.000D+00 0.000D+00 0.494D+00 0.169D+00
 Coeff:      0.321D+00
 Gap=     0.014 Goal=   None    Shift=    0.000
 RMSDP=4.90D-03 MaxDP=1.55D-01 DE=-2.40D+00 OVMax= 2.20D-01

 Cycle   8  Pass 1  IDiag  1:
 Density matrix breaks symmetry, PCut= 1.00D-04
 Density has only Abelian symmetry.
 E= -3841.52295684712     Delta-E=       -0.391464239301 Rises=F Damp=F
 DIIS: error= 7.36D-02 at cycle   8 NSaved=   8.
 NSaved= 8 IEnMin= 8 EnMin= -3841.52295684712     IErMin= 2 ErrMin= 5.99D-02
 ErrMax= 7.36D-02 EMaxC= 1.00D-01 BMatC= 5.32D-01 BMatP= 6.69D-01
 IDIUse=3 WtCom= 2.64D-01 WtEn= 7.36D-01
 EnCoef did     5 forward-backward iterations
 Coeff-Com: -0.280D-01 0.753D-01 0.323D-01-0.273D-02 0.266D+00-0.165D+00
 Coeff-Com:  0.200D+00 0.622D+00
 Coeff-En:   0.000D+00 0.000D+00 0.000D+00 0.000D+00 0.367D+00 0.000D+00
 Coeff-En:   0.182D+00 0.451D+00
 Coeff:     -0.739D-02 0.199D-01 0.853D-02-0.721D-03 0.340D+00-0.436D-01
 Coeff:      0.187D+00 0.496D+00
 Gap=     0.000 Goal=   None    Shift=    0.000
 RMSDP=7.84D-03 MaxDP=6.71D-01 DE=-3.91D-01 OVMax= 1.33D-01

 Cycle   9  Pass 1  IDiag  1:
 Density matrix breaks symmetry, PCut= 1.00D-04
 Density has only Abelian symmetry.
 E= -3841.79928995474     Delta-E=       -0.276333107623 Rises=F Damp=F
 DIIS: error= 4.43D-02 at cycle   9 NSaved=   9.
 NSaved= 9 IEnMin= 9 EnMin= -3841.79928995474     IErMin= 9 ErrMin= 4.43D-02
 ErrMax= 4.43D-02 EMaxC= 1.00D-01 BMatC= 2.20D-01 BMatP= 5.32D-01
 IDIUse=3 WtCom= 5.57D-01 WtEn= 4.43D-01
 EnCoef did     6 forward-backward iterations
 Coeff-Com:  0.315D-01-0.431D-01-0.544D-01 0.261D-01-0.977D-02-0.569D-01
 Coeff-Com:  0.135D+00 0.356D+00 0.616D+00
 Coeff-En:   0.000D+00 0.000D+00 0.000D+00 0.000D+00 0.000D+00 0.000D+00
 Coeff-En:   0.344D-01 0.362D+00 0.603D+00
 Coeff:      0.176D-01-0.240D-01-0.303D-01 0.145D-01-0.544D-02-0.317D-01
 Coeff:      0.906D-01 0.359D+00 0.610D+00
 Gap=     0.012 Goal=   None    Shift=    0.000
 RMSDP=7.63D-03 MaxDP=5.64D-01 DE=-2.76D-01 OVMax= 9.71D-02

 Cycle  10  Pass 1  IDiag  1:
 Density matrix breaks symmetry, PCut= 1.00D-04
 Density has only Abelian symmetry.
 E= -3841.76300299549     Delta-E=        0.036286959257 Rises=F Damp=F
 DIIS: error= 5.50D-02 at cycle  10 NSaved=  10.
 NSaved=10 IEnMin= 9 EnMin= -3841.79928995474     IErMin= 9 ErrMin= 4.43D-02
 ErrMax= 5.50D-02 EMaxC= 1.00D-01 BMatC= 2.68D-01 BMatP= 2.20D-01
 IDIUse=2 WtCom= 0.00D+00 WtEn= 1.00D+00
 EnCoef did    23 forward-backward iterations
 Coeff-En:   0.000D+00 0.000D+00 0.000D+00 0.000D+00 0.000D+00 0.000D+00
 Coeff-En:   0.000D+00 0.590D-01 0.526D+00 0.415D+00
 Coeff:      0.000D+00 0.000D+00 0.000D+00 0.000D+00 0.000D+00 0.000D+00
 Coeff:      0.000D+00 0.590D-01 0.526D+00 0.415D+00
 Gap=     0.008 Goal=   None    Shift=    0.000
 RMSDP=7.66D-03 MaxDP=6.33D-01 DE= 3.63D-02 OVMax= 7.87D-02

 Cycle  11  Pass 1  IDiag  1:
 Density matrix breaks symmetry, PCut= 1.00D-04
 Density has only Abelian symmetry.
 E= -3841.71718765735     Delta-E=        0.045815338140 Rises=F Damp=F
 DIIS: error= 6.33D-02 at cycle  11 NSaved=  11.
 NSaved=11 IEnMin= 9 EnMin= -3841.79928995474     IErMin= 9 ErrMin= 4.43D-02
 ErrMax= 6.33D-02 EMaxC= 1.00D-01 BMatC= 3.34D-01 BMatP= 2.20D-01
 IDIUse=2 WtCom= 0.00D+00 WtEn= 1.00D+00
 EnCoef did   100 forward-backward iterations
 Coeff-En:   0.000D+00 0.000D+00 0.000D+00 0.000D+00 0.000D+00 0.000D+00
 Coeff-En:   0.000D+00 0.495D-02 0.333D+00 0.476D+00 0.186D+00
 Coeff:      0.000D+00 0.000D+00 0.000D+00 0.000D+00 0.000D+00 0.000D+00
 Coeff:      0.000D+00 0.495D-02 0.333D+00 0.476D+00 0.186D+00
 Gap=     0.000 Goal=   None    Shift=    0.000
 RMSDP=1.08D-03 MaxDP=4.74D-02 DE= 4.58D-02 OVMax= 4.87D-02

 Cycle  12  Pass 1  IDiag  1:
 Density matrix breaks symmetry, PCut= 1.00D-04
 Density has only Abelian symmetry.
 E= -3841.87685080212     Delta-E=       -0.159663144772 Rises=F Damp=F
 DIIS: error= 4.35D-02 at cycle  12 NSaved=  12.
 NSaved=12 IEnMin=12 EnMin= -3841.87685080212     IErMin=12 ErrMin= 4.35D-02
 ErrMax= 4.35D-02 EMaxC= 1.00D-01 BMatC= 1.58D-01 BMatP= 2.20D-01
 IDIUse=3 WtCom= 5.65D-01 WtEn= 4.35D-01
 Coeff-Com:  0.333D-01-0.204D-01 0.286D-03 0.532D-02 0.231D-01 0.206D-02
 Coeff-Com: -0.114D+00-0.159D+00-0.728D+00 0.538D+00-0.123D+01 0.265D+01
 Coeff-En:   0.000D+00 0.000D+00 0.000D+00 0.000D+00 0.000D+00 0.000D+00
 Coeff-En:   0.000D+00 0.000D+00 0.000D+00 0.429D+00 0.000D+00 0.571D+00
 Coeff:      0.188D-01-0.115D-01 0.162D-03 0.301D-02 0.131D-01 0.117D-02
 Coeff:     -0.645D-01-0.901D-01-0.412D+00 0.490D+00-0.695D+00 0.175D+01
 Gap=     0.001 Goal=   None    Shift=    0.000
 RMSDP=7.55D-04 MaxDP=4.04D-02 DE=-1.60D-01 OVMax= 5.53D-02

 Cycle  13  Pass 1  IDiag  1:
 Density matrix breaks symmetry, PCut= 1.00D-04
 Density has only Abelian symmetry.
 E= -3841.96016537762     Delta-E=       -0.083314575498 Rises=F Damp=F
 DIIS: error= 2.83D-02 at cycle  13 NSaved=  13.
 NSaved=13 IEnMin=13 EnMin= -3841.96016537762     IErMin=13 ErrMin= 2.83D-02
 ErrMax= 2.83D-02 EMaxC= 1.00D-01 BMatC= 7.14D-02 BMatP= 1.58D-01
 IDIUse=3 WtCom= 7.17D-01 WtEn= 2.83D-01
 Coeff-Com:  0.598D-01-0.642D-01-0.246D-02 0.505D-02-0.348D-02 0.306D-01
 Coeff-Com: -0.481D-01-0.903D-01-0.546D+00 0.177D+00-0.556D+00 0.289D+00
 Coeff-Com:  0.175D+01
 Coeff-En:   0.000D+00 0.000D+00 0.000D+00 0.000D+00 0.000D+00 0.000D+00
 Coeff-En:   0.000D+00 0.000D+00 0.000D+00 0.332D+00 0.000D+00 0.000D+00
 Coeff-En:   0.668D+00
 Coeff:      0.429D-01-0.460D-01-0.176D-02 0.362D-02-0.249D-02 0.220D-01
 Coeff:     -0.345D-01-0.647D-01-0.391D+00 0.221D+00-0.399D+00 0.208D+00
 Coeff:      0.144D+01
 Gap=     0.007 Goal=   None    Shift=    0.000
 RMSDP=7.17D-04 MaxDP=3.37D-02 DE=-8.33D-02 OVMax= 5.67D-02

 Cycle  14  Pass 1  IDiag  1:
 Density matrix breaks symmetry, PCut= 1.00D-04
 Density has only Abelian symmetry.
 E= -3842.00417380313     Delta-E=       -0.044008425512 Rises=F Damp=F
 DIIS: error= 1.74D-02 at cycle  14 NSaved=  14.
 NSaved=14 IEnMin=14 EnMin= -3842.00417380313     IErMin=14 ErrMin= 1.74D-02
 ErrMax= 1.74D-02 EMaxC= 1.00D-01 BMatC= 2.70D-02 BMatP= 7.14D-02
 IDIUse=3 WtCom= 8.26D-01 WtEn= 1.74D-01
 Coeff-Com:  0.351D-01-0.452D-01-0.735D-02 0.290D-02-0.389D-01 0.333D-01
 Coeff-Com: -0.877D-02-0.598D-01 0.578D-01 0.242D-01-0.147D+00-0.634D-01
 Coeff-Com: -0.607D+00 0.182D+01
 Coeff-En:   0.000D+00 0.000D+00 0.000D+00 0.000D+00 0.000D+00 0.000D+00
 Coeff-En:   0.000D+00 0.000D+00 0.000D+00 0.220D+00 0.000D+00 0.000D+00
 Coeff-En:   0.000D+00 0.780D+00
 Coeff:      0.290D-01-0.373D-01-0.607D-02 0.240D-02-0.321D-01 0.275D-01
 Coeff:     -0.725D-02-0.494D-01 0.478D-01 0.582D-01-0.122D+00-0.524D-01
 Coeff:     -0.501D+00 0.164D+01
 Gap=     0.012 Goal=   None    Shift=    0.000
 RMSDP=5.01D-04 MaxDP=3.09D-02 DE=-4.40D-02 OVMax= 4.18D-02

 Cycle  15  Pass 1  IDiag  1:
 Density matrix breaks symmetry, PCut= 1.00D-04
 Density has only Abelian symmetry.
 E= -3842.02322423365     Delta-E=       -0.019050430525 Rises=F Damp=F
 DIIS: error= 8.07D-03 at cycle  15 NSaved=  15.
 NSaved=15 IEnMin=15 EnMin= -3842.02322423365     IErMin=15 ErrMin= 8.07D-03
 ErrMax= 8.07D-03 EMaxC= 1.00D-01 BMatC= 6.32D-03 BMatP= 2.70D-02
 IDIUse=3 WtCom= 9.19D-01 WtEn= 8.07D-02
 Coeff-Com:  0.837D-02-0.103D-01-0.383D-02 0.140D-02-0.388D-01 0.253D-01
 Coeff-Com: -0.154D-01-0.520D-01 0.610D-01 0.240D-01-0.533D-01 0.203D+00
 Coeff-Com: -0.851D+00 0.764D+00 0.938D+00
 Coeff-En:   0.000D+00 0.000D+00 0.000D+00 0.000D+00 0.000D+00 0.000D+00
 Coeff-En:   0.000D+00 0.000D+00 0.000D+00 0.961D-01 0.000D+00 0.000D+00
 Coeff-En:   0.000D+00 0.000D+00 0.904D+00
 Coeff:      0.770D-02-0.947D-02-0.352D-02 0.128D-02-0.357D-01 0.232D-01
 Coeff:     -0.142D-01-0.478D-01 0.560D-01 0.298D-01-0.490D-01 0.186D+00
 Coeff:     -0.782D+00 0.703D+00 0.935D+00
 Gap=     0.012 Goal=   None    Shift=    0.000
 RMSDP=2.12D-04 MaxDP=1.12D-02 DE=-1.91D-02 OVMax= 1.61D-02

 Cycle  16  Pass 1  IDiag  1:
 Density matrix breaks symmetry, PCut= 1.00D-04
 Density has only Abelian symmetry.
 E= -3842.02723944179     Delta-E=       -0.004015208131 Rises=F Damp=F
 DIIS: error= 4.46D-03 at cycle  16 NSaved=  16.
 NSaved=16 IEnMin=16 EnMin= -3842.02723944179     IErMin=16 ErrMin= 4.46D-03
 ErrMax= 4.46D-03 EMaxC= 1.00D-01 BMatC= 1.92D-03 BMatP= 6.32D-03
 IDIUse=3 WtCom= 9.55D-01 WtEn= 4.46D-02
 Coeff-Com:  0.399D-03 0.182D-02 0.394D-03 0.110D-02-0.104D-01 0.793D-02
 Coeff-Com: -0.157D-01-0.231D-01-0.895D-01 0.296D-01-0.206D-01 0.326D-01
 Coeff-Com:  0.506D+00-0.945D+00 0.140D+00 0.139D+01
 Coeff-En:   0.000D+00 0.000D+00 0.000D+00 0.000D+00 0.000D+00 0.000D+00
 Coeff-En:   0.000D+00 0.000D+00 0.000D+00 0.320D-01 0.000D+00 0.000D+00
 Coeff-En:   0.000D+00 0.000D+00 0.000D+00 0.968D+00
 Coeff:      0.381D-03 0.174D-02 0.377D-03 0.105D-02-0.995D-02 0.758D-02
 Coeff:     -0.150D-01-0.220D-01-0.855D-01 0.297D-01-0.197D-01 0.311D-01
 Coeff:      0.483D+00-0.903D+00 0.133D+00 0.137D+01
 Gap=     0.008 Goal=   None    Shift=    0.000
 RMSDP=1.22D-04 MaxDP=6.31D-03 DE=-4.02D-03 OVMax= 7.97D-03

 Cycle  17  Pass 1  IDiag  1:
 Density matrix breaks symmetry, PCut= 1.00D-04
 Density has only Abelian symmetry.
 E= -3842.02870967243     Delta-E=       -0.001470230647 Rises=F Damp=F
 DIIS: error= 1.73D-03 at cycle  17 NSaved=  17.
 NSaved=17 IEnMin=17 EnMin= -3842.02870967243     IErMin=17 ErrMin= 1.73D-03
 ErrMax= 1.73D-03 EMaxC= 1.00D-01 BMatC= 2.44D-04 BMatP= 1.92D-03
 IDIUse=3 WtCom= 9.83D-01 WtEn= 1.73D-02
 Coeff-Com:  0.165D-02-0.194D-02 0.383D-04 0.603D-03 0.657D-03 0.567D-03
 Coeff-Com: -0.148D-02-0.140D-02-0.168D-01 0.879D-03 0.409D-02-0.707D-01
 Coeff-Com:  0.262D+00-0.325D+00-0.191D+00 0.349D+00 0.989D+00
 Coeff-En:   0.000D+00 0.000D+00 0.000D+00 0.000D+00 0.000D+00 0.000D+00
 Coeff-En:   0.000D+00 0.000D+00 0.000D+00 0.000D+00 0.000D+00 0.000D+00
 Coeff-En:   0.000D+00 0.000D+00 0.000D+00 0.000D+00 0.100D+01
 Coeff:      0.162D-02-0.190D-02 0.376D-04 0.593D-03 0.646D-03 0.557D-03
 Coeff:     -0.146D-02-0.137D-02-0.166D-01 0.864D-03 0.402D-02-0.695D-01
 Coeff:      0.257D+00-0.319D+00-0.188D+00 0.343D+00 0.989D+00
 Gap=     0.006 Goal=   None    Shift=    0.000
 RMSDP=6.78D-05 MaxDP=3.73D-03 DE=-1.47D-03 OVMax= 4.68D-03

 Cycle  18  Pass 1  IDiag  1:
 Density matrix breaks symmetry, PCut= 1.00D-04
 Density has only Abelian symmetry.
 E= -3842.02892848283     Delta-E=       -0.000218810402 Rises=F Damp=F
 DIIS: error= 8.02D-05 at cycle  18 NSaved=  18.
 NSaved=18 IEnMin=18 EnMin= -3842.02892848283     IErMin=18 ErrMin= 8.02D-05
 ErrMax= 8.02D-05 EMaxC= 1.00D-01 BMatC= 8.44D-07 BMatP= 2.44D-04
 IDIUse=1 WtCom= 1.00D+00 WtEn= 0.00D+00
 Coeff-Com:  0.542D-03-0.659D-03-0.505D-04 0.129D-03-0.423D-03 0.548D-03
 Coeff-Com: -0.333D-03-0.760D-03-0.105D-02-0.804D-03-0.144D-02-0.492D-02
 Coeff-Com:  0.126D-01 0.297D-02-0.288D-01-0.255D-01 0.185D+00 0.863D+00
 Coeff:      0.542D-03-0.659D-03-0.505D-04 0.129D-03-0.423D-03 0.548D-03
 Coeff:     -0.333D-03-0.760D-03-0.105D-02-0.804D-03-0.144D-02-0.492D-02
 Coeff:      0.126D-01 0.297D-02-0.288D-01-0.255D-01 0.185D+00 0.863D+00
 Gap=     0.006 Goal=   None    Shift=    0.000
 RMSDP=1.38D-05 MaxDP=8.34D-04 DE=-2.19D-04 OVMax= 1.07D-03

 Cycle  19  Pass 1  IDiag  1:
 E= -3842.02892953358     Delta-E=       -0.000001050749 Rises=F Damp=F
 DIIS: error= 1.55D-04 at cycle  19 NSaved=  19.
 NSaved=19 IEnMin=19 EnMin= -3842.02892953358     IErMin=18 ErrMin= 8.02D-05
 ErrMax= 1.55D-04 EMaxC= 1.00D-01 BMatC= 1.48D-06 BMatP= 8.44D-07
 IDIUse=1 WtCom= 1.00D+00 WtEn= 0.00D+00
 Coeff-Com:  0.176D-03-0.217D-03 0.592D-04-0.115D-04 0.492D-05 0.610D-04
 Coeff-Com: -0.127D-03-0.764D-04-0.202D-02-0.403D-05-0.251D-02 0.710D-02
 Coeff-Com: -0.827D-02 0.235D-01 0.185D-02-0.532D-01-0.874D-01 0.710D-01
 Coeff-Com:  0.105D+01
 Coeff:      0.176D-03-0.217D-03 0.592D-04-0.115D-04 0.492D-05 0.610D-04
 Coeff:     -0.127D-03-0.764D-04-0.202D-02-0.403D-05-0.251D-02 0.710D-02
 Coeff:     -0.827D-02 0.235D-01 0.185D-02-0.532D-01-0.874D-01 0.710D-01
 Coeff:      0.105D+01
 Gap=     0.006 Goal=   None    Shift=    0.000
 RMSDP=8.11D-06 MaxDP=6.67D-04 DE=-1.05D-06 OVMax= 6.83D-04

 Cycle  20  Pass 1  IDiag  1:
 E= -3842.02893105647     Delta-E=       -0.000001522885 Rises=F Damp=F
 DIIS: error= 2.58D-05 at cycle  20 NSaved=  20.
 NSaved=20 IEnMin=20 EnMin= -3842.02893105647     IErMin=20 ErrMin= 2.58D-05
 ErrMax= 2.58D-05 EMaxC= 1.00D-01 BMatC= 5.15D-08 BMatP= 8.44D-07
 IDIUse=1 WtCom= 1.00D+00 WtEn= 0.00D+00
 Coeff-Com:  0.789D-04-0.105D-03 0.200D-04-0.846D-05-0.890D-05 0.134D-04
 Coeff-Com: -0.298D-04-0.791D-05-0.637D-03 0.263D-04-0.754D-03 0.214D-02
 Coeff-Com: -0.125D-02 0.496D-02 0.866D-03-0.137D-01-0.390D-01-0.359D-01
 Coeff-Com:  0.289D+00 0.794D+00
 Coeff:      0.789D-04-0.105D-03 0.200D-04-0.846D-05-0.890D-05 0.134D-04
 Coeff:     -0.298D-04-0.791D-05-0.637D-03 0.263D-04-0.754D-03 0.214D-02
 Coeff:     -0.125D-02 0.496D-02 0.866D-03-0.137D-01-0.390D-01-0.359D-01
 Coeff:      0.289D+00 0.794D+00
 Gap=     0.006 Goal=   None    Shift=    0.000
 RMSDP=1.45D-06 MaxDP=1.17D-04 DE=-1.52D-06 OVMax= 1.05D-04

 Cycle  21  Pass 1  IDiag  1:
 E= -3842.02893110444     Delta-E=       -0.000000047970 Rises=F Damp=F
 DIIS: error= 8.75D-06 at cycle  21 NSaved=  20.
 NSaved=20 IEnMin=20 EnMin= -3842.02893110444     IErMin=20 ErrMin= 8.75D-06
 ErrMax= 8.75D-06 EMaxC= 1.00D-01 BMatC= 5.86D-09 BMatP= 5.15D-08
 IDIUse=1 WtCom= 1.00D+00 WtEn= 0.00D+00
 Coeff-Com:  0.119D-04-0.136D-04 0.330D-05-0.161D-04 0.130D-04-0.340D-05
 Coeff-Com: -0.889D-05-0.191D-03-0.284D-04-0.140D-03 0.359D-03 0.819D-03
 Coeff-Com: -0.170D-02-0.246D-03 0.159D-02-0.166D-02-0.135D-01-0.225D-01
 Coeff-Com:  0.183D+00 0.855D+00
 Coeff:      0.119D-04-0.136D-04 0.330D-05-0.161D-04 0.130D-04-0.340D-05
 Coeff:     -0.889D-05-0.191D-03-0.284D-04-0.140D-03 0.359D-03 0.819D-03
 Coeff:     -0.170D-02-0.246D-03 0.159D-02-0.166D-02-0.135D-01-0.225D-01
 Coeff:      0.183D+00 0.855D+00
 Gap=     0.006 Goal=   None    Shift=    0.000
 RMSDP=3.66D-07 MaxDP=2.20D-05 DE=-4.80D-08 OVMax= 2.06D-05

 Cycle  22  Pass 1  IDiag  1:
 E= -3842.02893110916     Delta-E=       -0.000000004718 Rises=F Damp=F
 DIIS: error= 3.60D-06 at cycle  22 NSaved=  20.
 NSaved=20 IEnMin=20 EnMin= -3842.02893110916     IErMin=20 ErrMin= 3.60D-06
 ErrMax= 3.60D-06 EMaxC= 1.00D-01 BMatC= 1.09D-09 BMatP= 5.86D-09
 IDIUse=1 WtCom= 1.00D+00 WtEn= 0.00D+00
 Coeff-Com:  0.345D-06-0.128D-06-0.334D-06 0.173D-05 0.490D-05 0.412D-05
 Coeff-Com: -0.283D-04-0.126D-04-0.120D-04-0.418D-04 0.471D-03-0.821D-03
 Coeff-Com: -0.432D-03 0.818D-03 0.225D-02 0.837D-03-0.234D-01-0.248D-01
 Coeff-Com:  0.144D+00 0.901D+00
 Coeff:      0.345D-06-0.128D-06-0.334D-06 0.173D-05 0.490D-05 0.412D-05
 Coeff:     -0.283D-04-0.126D-04-0.120D-04-0.418D-04 0.471D-03-0.821D-03
 Coeff:     -0.432D-03 0.818D-03 0.225D-02 0.837D-03-0.234D-01-0.248D-01
 Coeff:      0.144D+00 0.901D+00
 Gap=     0.006 Goal=   None    Shift=    0.000
 RMSDP=1.37D-07 MaxDP=1.07D-05 DE=-4.72D-09 OVMax= 9.45D-06

 Cycle  23  Pass 1  IDiag  1:
 E= -3842.02893111003     Delta-E=       -0.000000000873 Rises=F Damp=F
 DIIS: error= 1.06D-07 at cycle  23 NSaved=  20.
 NSaved=20 IEnMin=20 EnMin= -3842.02893111003     IErMin=20 ErrMin= 1.06D-07
 ErrMax= 1.06D-07 EMaxC= 1.00D-01 BMatC= 1.23D-12 BMatP= 1.09D-09
 IDIUse=1 WtCom= 1.00D+00 WtEn= 0.00D+00
 Coeff-Com:  0.419D-06-0.481D-06 0.310D-06 0.206D-06-0.722D-07-0.446D-05
 Coeff-Com:  0.175D-06-0.308D-05-0.859D-05 0.474D-04-0.258D-04-0.274D-04
 Coeff-Com: -0.324D-05 0.956D-04 0.490D-03-0.885D-04-0.538D-02-0.114D-01
 Coeff-Com:  0.593D-01 0.957D+00
 Coeff:      0.419D-06-0.481D-06 0.310D-06 0.206D-06-0.722D-07-0.446D-05
 Coeff:      0.175D-06-0.308D-05-0.859D-05 0.474D-04-0.258D-04-0.274D-04
 Coeff:     -0.324D-05 0.956D-04 0.490D-03-0.885D-04-0.538D-02-0.114D-01
 Coeff:      0.593D-01 0.957D+00
 Gap=     0.006 Goal=   None    Shift=    0.000
 RMSDP=1.34D-08 MaxDP=4.56D-07 DE=-8.73D-10 OVMax= 7.76D-07

 Cycle  24  Pass 1  IDiag  1:
 E= -3842.02893111003     Delta-E=        0.000000000001 Rises=F Damp=F
 DIIS: error= 7.04D-08 at cycle  24 NSaved=  20.
 NSaved=20 IEnMin=19 EnMin= -3842.02893111003     IErMin=20 ErrMin= 7.04D-08
 ErrMax= 7.04D-08 EMaxC= 1.00D-01 BMatC= 3.63D-13 BMatP= 1.23D-12
 IDIUse=1 WtCom= 1.00D+00 WtEn= 0.00D+00
 Coeff-Com: -0.210D-08 0.253D-07-0.219D-07-0.113D-06-0.101D-07 0.220D-06
 Coeff-Com: -0.635D-06 0.903D-06-0.653D-05 0.174D-04 0.116D-04-0.211D-04
 Coeff-Com: -0.471D-04 0.130D-03 0.640D-03-0.136D-02-0.881D-02-0.154D-01
 Coeff-Com:  0.277D+00 0.748D+00
 Coeff:     -0.210D-08 0.253D-07-0.219D-07-0.113D-06-0.101D-07 0.220D-06
 Coeff:     -0.635D-06 0.903D-06-0.653D-05 0.174D-04 0.116D-04-0.211D-04
 Coeff:     -0.471D-04 0.130D-03 0.640D-03-0.136D-02-0.881D-02-0.154D-01
 Coeff:      0.277D+00 0.748D+00
 Gap=     0.006 Goal=   None    Shift=    0.000
 RMSDP=2.99D-09 MaxDP=1.31D-07 DE= 9.09D-13 OVMax= 1.69D-07

 SCF Done:  E(RB3LYP) =  -3842.02893111     A.U. after   24 cycles
             Convg  =    0.2993D-08             -V/T =  2.0300
 KE= 3.730108808037D+03 PE=-1.296588684177D+04 EE= 3.477828760680D+03
 Leave Link  502 at Tue May  5 12:47:39 2015, MaxMem= 1073741824 cpu:     118.6
 (Enter /usr/g09/l601.exe)
 Copying SCF densities to generalized density rwf, IOpCl= 0 IROHF=0.

 **********************************************************************

            Population analysis using the SCF density.

 **********************************************************************

 Orbital symmetries:
       Occupied  (E) (E) (A1) (B1) (E) (E) (A1) (B2) (E) (E) (A1)
                 (B1) (E) (E) (A1) (B2) (A1) (B1) (E) (E) (A2)
                 (E) (E) (B2) (A1) (B1) (E) (E) (A1) (B2) (E) (E)
                 (A1) (B2) (E) (E) (A2) (E) (E) (B1) (A1) (A1)
                 (A1) (E) (E) (A1) (E) (E) (A1) (B1) (E) (E) (A1)
                 (B2) (E) (E) (B1) (A1) (B2) (E) (E) (A1) (B2)
                 (B1) (E) (E) (A1) (E) (E) (A1) (E) (E) (A1) (B1)
                 (E) (E) (A2) (B2) (E) (E) (E) (E) (A2) (B1)
       Virtual   (B2) (E) (E) (A1) (B1) (A1) (B2) (A1) (E) (E)
                 (E) (E) (A1) (A1) (A1) (A1) (E) (E) (A1) (E) (E)
                 (B1) (B2) (B2) (B1) (A1) (E) (E) (B2) (E) (E)
                 (B1) (E) (E) (A1) (E) (E) (E) (E) (A1) (E) (E)
                 (A2) (B1) (B2) (E) (E) (A1) (B1) (E) (E) (A2)
                 (B2) (A1) (A1) (E) (E) (B1) (B2) (E) (E) (A1)
                 (B1) (A2) (E) (E) (A1) (E) (E) (B2) (A2) (B2)
                 (E) (E) (A1) (E) (E) (B1) (A2) (E) (E) (A2) (E)
                 (E) (A1) (B1) (A1) (B2) (A1) (E) (E) (E) (E) (B1)
                 (B2) (A1) (E) (E) (E) (E) (B2) (B1) (A1) (A1)
 The electronic state is 1-A1.
 Alpha  occ. eigenvalues -- -101.26424-101.26424-101.26423-101.26422-101.22559
 Alpha  occ. eigenvalues -- -101.22559-101.22558-101.22558  -9.19737  -9.19737
 Alpha  occ. eigenvalues --   -9.19735  -9.19733  -9.15785  -9.15785  -9.15783
 Alpha  occ. eigenvalues --   -9.15780  -6.95698  -6.95697  -6.95697  -6.95697
 Alpha  occ. eigenvalues --   -6.95292  -6.95292  -6.95292  -6.95290  -6.95168
 Alpha  occ. eigenvalues --   -6.95167  -6.95167  -6.95167  -6.91781  -6.91781
 Alpha  occ. eigenvalues --   -6.91780  -6.91780  -6.91401  -6.91400  -6.91399
 Alpha  occ. eigenvalues --   -6.91399  -6.91151  -6.91150  -6.91150  -6.91149
 Alpha  occ. eigenvalues --   -2.55429  -2.50087  -1.51037  -1.50997  -1.50997
 Alpha  occ. eigenvalues --   -1.43900  -1.43877  -1.43877  -0.56921  -0.54836
 Alpha  occ. eigenvalues --   -0.54690  -0.54690  -0.52868  -0.50766  -0.50712
 Alpha  occ. eigenvalues --   -0.50712  -0.17792  -0.16975  -0.15441  -0.14597
 Alpha  occ. eigenvalues --   -0.14597  -0.12965  -0.12221  -0.11240  -0.11192
 Alpha  occ. eigenvalues --   -0.11192  -0.10973  -0.08739  -0.08739  -0.07689
 Alpha  occ. eigenvalues --   -0.06124  -0.06124  -0.05834  -0.05499  -0.04198
 Alpha  occ. eigenvalues --   -0.04198  -0.03385  -0.02279  -0.02233  -0.02233
 Alpha  occ. eigenvalues --   -0.00234  -0.00234   0.00611   0.05378
 Alpha virt. eigenvalues --    0.05941   0.14183   0.14183   0.15119   0.16410
 Alpha virt. eigenvalues --    0.21358   0.22715   0.24065   0.24895   0.24895
 Alpha virt. eigenvalues --    0.26393   0.26393   0.29149   0.33262   0.38832
 Alpha virt. eigenvalues --    0.46394   0.46876   0.46876   0.53131   0.54602
 Alpha virt. eigenvalues --    0.54602   0.58531   0.59551   0.61722   0.63513
 Alpha virt. eigenvalues --    0.63703   0.64758   0.64758   0.65553   0.66192
 Alpha virt. eigenvalues --    0.66192   0.67211   0.69759   0.69759   0.71761
 Alpha virt. eigenvalues --    0.72160   0.72160   0.75821   0.75821   0.77384
 Alpha virt. eigenvalues --    0.78258   0.78258   0.79478   0.80193   0.81142
 Alpha virt. eigenvalues --    0.82001   0.82001   0.83001   0.83372   0.85935
 Alpha virt. eigenvalues --    0.85935   0.86032   0.86562   0.89445   0.93682
 Alpha virt. eigenvalues --    0.96010   0.96010   0.97475   0.99409   1.01833
 Alpha virt. eigenvalues --    1.01833   1.04297   1.11905   1.12252   1.12284
 Alpha virt. eigenvalues --    1.12284   1.12856   1.13343   1.13343   1.13526
 Alpha virt. eigenvalues --    1.15684   1.15762   1.16005   1.16005   1.16507
 Alpha virt. eigenvalues --    1.16647   1.16647   1.16898   1.17397   1.18459
 Alpha virt. eigenvalues --    1.18459   1.21271   1.21535   1.21535   1.21703
 Alpha virt. eigenvalues --    1.24088   1.25575   1.26874   1.31551   1.32466
 Alpha virt. eigenvalues --    1.32466   1.41228   1.41228   1.41251   1.41695
 Alpha virt. eigenvalues --    1.45593   1.46408   1.46408   1.51231   1.51231
 Alpha virt. eigenvalues --    1.59232   1.59464   9.05281  17.87477
     Molecular Orbital Coefficients:
                           1         2         3         4         5
                        (E)--O    (E)--O    (A1)--O   (B1)--O   (E)--O
     Eigenvalues --  -101.26424-101.26424-101.26423-101.26422-101.22559
   1 1   Tc 1S          0.00000   0.00000   0.00017   0.00000   0.00000
   2        2S          0.00000   0.00000   0.00008   0.00000   0.00000
   3        3S          0.00000   0.00000   0.00275   0.00000   0.00000
   4        4PX         0.00004   0.00000   0.00000   0.00000   0.00024
   5        4PY         0.00000   0.00004   0.00000   0.00000   0.00000
   6        4PZ         0.00000   0.00000  -0.00005   0.00000   0.00000
   7        5PX        -0.00006   0.00000   0.00000   0.00000   0.00397
   8        5PY         0.00000  -0.00006   0.00000   0.00000   0.00000
   9        5PZ         0.00000   0.00000  -0.00111   0.00000   0.00000
  10        6PX         0.00019   0.00000   0.00000   0.00000   0.00051
  11        6PY         0.00000   0.00019   0.00000   0.00000   0.00000
  12        6PZ         0.00000   0.00000  -0.00010   0.00000   0.00000
  13        7D 0        0.00000   0.00000  -0.00003   0.00000   0.00000
  14        7D+1       -0.00003   0.00000   0.00000   0.00000   0.00000
  15        7D-1        0.00000  -0.00003   0.00000   0.00000   0.00000
  16        7D+2        0.00000   0.00000   0.00000   0.00000   0.00000
  17        7D-2        0.00000   0.00000   0.00000   0.00008   0.00000
  18        8D 0        0.00000   0.00000   0.00039   0.00000   0.00000
  19        8D+1       -0.00024   0.00000   0.00000   0.00000   0.00057
  20        8D-1        0.00000  -0.00024   0.00000   0.00000   0.00000
  21        8D+2        0.00000   0.00000   0.00000   0.00000   0.00000
  22        8D-2        0.00000   0.00000   0.00000  -0.00021   0.00000
  23 2   Tc 1S          0.00000   0.00000  -0.00007   0.00000   0.00000
  24        2S          0.00000   0.00000   0.00009   0.00000   0.00000
  25        3S          0.00000   0.00000  -0.00680   0.00000   0.00000
  26        4PX        -0.00024   0.00000   0.00000   0.00000  -0.00004
  27        4PY         0.00000  -0.00024   0.00000   0.00000   0.00000
  28        4PZ         0.00000   0.00000   0.00001   0.00000   0.00000
  29        5PX        -0.00396   0.00000   0.00000   0.00000   0.00006
  30        5PY         0.00000  -0.00396   0.00000   0.00000   0.00000
  31        5PZ         0.00000   0.00000  -0.00047   0.00000   0.00000
  32        6PX        -0.00051   0.00000   0.00000   0.00000  -0.00019
  33        6PY         0.00000  -0.00051   0.00000   0.00000   0.00000
  34        6PZ         0.00000   0.00000  -0.00106   0.00000   0.00000
  35        7D 0        0.00000   0.00000  -0.00004   0.00000   0.00000
  36        7D+1        0.00000   0.00000   0.00000   0.00000  -0.00003
  37        7D-1        0.00000   0.00000   0.00000   0.00000   0.00000
  38        7D+2        0.00000   0.00000   0.00000   0.00000   0.00000
  39        7D-2        0.00000   0.00000   0.00000  -0.00007   0.00000
  40        8D 0        0.00000   0.00000   0.00052   0.00000   0.00000
  41        8D+1        0.00057   0.00000   0.00000   0.00000  -0.00024
  42        8D-1        0.00000   0.00057   0.00000   0.00000   0.00000
  43        8D+2        0.00000   0.00000   0.00000   0.00000   0.00000
  44        8D-2        0.00000   0.00000   0.00000  -0.00070   0.00000
  45 3   Cl 1S          0.49823   0.49823   0.49823   0.49824   0.00010
  46        2S          0.00633   0.00633   0.00634   0.00635   0.00001
  47        2PX        -0.00003  -0.00001  -0.00001  -0.00003   0.00001
  48        2PY        -0.00001  -0.00003  -0.00001  -0.00003   0.00000
  49        2PZ         0.00001   0.00001   0.00001   0.00000   0.00000
  50        3S         -0.00280  -0.00280  -0.00269  -0.00254   0.00012
  51        3PX         0.00012   0.00005   0.00003   0.00013  -0.00003
  52        3PY         0.00005   0.00012   0.00003   0.00013   0.00002
  53        3PZ        -0.00004  -0.00004  -0.00003  -0.00002   0.00001
  54        4S          0.00332   0.00332   0.00299   0.00207  -0.00033
  55        4PX        -0.00064  -0.00084  -0.00035  -0.00050   0.00012
  56        4PY        -0.00084  -0.00064  -0.00035  -0.00050   0.00007
  57        4PZ         0.00025   0.00025   0.00026   0.00015  -0.00010
  58        5D 0       -0.00004  -0.00004   0.00000  -0.00004  -0.00001
  59        5D+1        0.00000  -0.00003  -0.00003  -0.00002   0.00000
  60        5D-1       -0.00003   0.00000  -0.00003  -0.00002   0.00001
  61        5D+2       -0.00003   0.00003   0.00000   0.00000   0.00000
  62        5D-2        0.00007   0.00007   0.00003   0.00004  -0.00001
  63 4   Cl 1S         -0.49823   0.49823   0.49823  -0.49824  -0.00010
  64        2S         -0.00633   0.00633   0.00634  -0.00635  -0.00001
  65        2PX        -0.00003   0.00001   0.00001  -0.00003   0.00001
  66        2PY         0.00001  -0.00003  -0.00001   0.00003   0.00000
  67        2PZ        -0.00001   0.00001   0.00001   0.00000   0.00000
  68        3S          0.00280  -0.00280  -0.00269   0.00254  -0.00012
  69        3PX         0.00012  -0.00005  -0.00003   0.00013  -0.00003
  70        3PY        -0.00005   0.00012   0.00003  -0.00013  -0.00002
  71        3PZ         0.00004  -0.00004  -0.00003   0.00002  -0.00001
  72        4S         -0.00332   0.00332   0.00299  -0.00207   0.00033
  73        4PX        -0.00064   0.00084   0.00035  -0.00050   0.00012
  74        4PY         0.00084  -0.00064  -0.00035   0.00050  -0.00007
  75        4PZ        -0.00025   0.00025   0.00026  -0.00015   0.00010
  76        5D 0        0.00004  -0.00004   0.00000   0.00004   0.00001
  77        5D+1        0.00000   0.00003   0.00003  -0.00002   0.00000
  78        5D-1        0.00003   0.00000  -0.00003   0.00002  -0.00001
  79        5D+2        0.00003   0.00003   0.00000   0.00000   0.00000
  80        5D-2        0.00007  -0.00007  -0.00003   0.00004  -0.00001
  81 5   Cl 1S          0.49823  -0.49823   0.49823  -0.49824   0.00010
  82        2S          0.00633  -0.00633   0.00634  -0.00635   0.00001
  83        2PX        -0.00003   0.00001  -0.00001   0.00003   0.00001
  84        2PY         0.00001  -0.00003   0.00001  -0.00003   0.00000
  85        2PZ         0.00001  -0.00001   0.00001   0.00000   0.00000
  86        3S         -0.00280   0.00280  -0.00269   0.00254   0.00012
  87        3PX         0.00012  -0.00005   0.00003  -0.00013  -0.00003
  88        3PY        -0.00005   0.00012  -0.00003   0.00013  -0.00002
  89        3PZ        -0.00004   0.00004  -0.00003   0.00002   0.00001
  90        4S          0.00332  -0.00332   0.00299  -0.00207  -0.00033
  91        4PX        -0.00064   0.00084  -0.00035   0.00050   0.00012
  92        4PY         0.00084  -0.00064   0.00035  -0.00050  -0.00007
  93        4PZ         0.00025  -0.00025   0.00026  -0.00015  -0.00010
  94        5D 0       -0.00004   0.00004   0.00000   0.00004  -0.00001
  95        5D+1        0.00000   0.00003  -0.00003   0.00002   0.00000
  96        5D-1        0.00003   0.00000   0.00003  -0.00002  -0.00001
  97        5D+2       -0.00003  -0.00003   0.00000   0.00000   0.00000
  98        5D-2       -0.00007   0.00007  -0.00003   0.00004   0.00001
  99 6   Cl 1S         -0.49823  -0.49823   0.49823   0.49824  -0.00010
 100        2S         -0.00633  -0.00633   0.00634   0.00635  -0.00001
 101        2PX        -0.00003  -0.00001   0.00001   0.00003   0.00001
 102        2PY        -0.00001  -0.00003   0.00001   0.00003   0.00000
 103        2PZ        -0.00001  -0.00001   0.00001   0.00000   0.00000
 104        3S          0.00280   0.00280  -0.00269  -0.00254  -0.00012
 105        3PX         0.00012   0.00005  -0.00003  -0.00013  -0.00003
 106        3PY         0.00005   0.00012  -0.00003  -0.00013   0.00002
 107        3PZ         0.00004   0.00004  -0.00003  -0.00002  -0.00001
 108        4S         -0.00332  -0.00332   0.00299   0.00207   0.00033
 109        4PX        -0.00064  -0.00084   0.00035   0.00050   0.00012
 110        4PY        -0.00084  -0.00064   0.00035   0.00050   0.00007
 111        4PZ        -0.00025  -0.00025   0.00026   0.00015   0.00010
 112        5D 0        0.00004   0.00004   0.00000  -0.00004   0.00001
 113        5D+1        0.00000  -0.00003   0.00003   0.00002   0.00000
 114        5D-1       -0.00003   0.00000   0.00003   0.00002   0.00001
 115        5D+2        0.00003  -0.00003   0.00000   0.00000   0.00000
 116        5D-2       -0.00007  -0.00007   0.00003   0.00004   0.00001
 117 7   Cl 1S          0.00000   0.00014   0.00008   0.00000   0.00000
 118        2S          0.00000  -0.00001  -0.00001   0.00000   0.00000
 119        2PX        -0.00001   0.00000   0.00000  -0.00001   0.00002
 120        2PY         0.00000   0.00000   0.00001   0.00000   0.00000
 121        2PZ         0.00000   0.00000   0.00000   0.00000   0.00000
 122        3S          0.00000  -0.00017  -0.00011   0.00000   0.00000
 123        3PX         0.00005   0.00000   0.00000   0.00004  -0.00007
 124        3PY         0.00000   0.00002  -0.00005   0.00000   0.00000
 125        3PZ         0.00000   0.00001   0.00002   0.00000   0.00000
 126        4S          0.00000   0.00047   0.00039   0.00000   0.00000
 127        4PX        -0.00005   0.00000   0.00000   0.00000  -0.00020
 128        4PY         0.00000  -0.00020  -0.00003   0.00000   0.00000
 129        4PZ         0.00000  -0.00015  -0.00018   0.00000   0.00000
 130        5D 0        0.00000   0.00001   0.00001   0.00000   0.00000
 131        5D+1        0.00000   0.00000   0.00000   0.00000   0.00002
 132        5D-1        0.00000   0.00001   0.00001   0.00000   0.00000
 133        5D+2        0.00000  -0.00002   0.00000   0.00000   0.00000
 134        5D-2       -0.00001   0.00000   0.00000  -0.00002   0.00005
 135 8   Cl 1S         -0.00014   0.00000   0.00008   0.00000   0.70461
 136        2S          0.00001   0.00000  -0.00001   0.00000   0.00895
 137        2PX         0.00000   0.00000  -0.00001   0.00000   0.00004
 138        2PY         0.00000  -0.00001   0.00000   0.00001   0.00000
 139        2PZ         0.00000   0.00000   0.00000   0.00000  -0.00001
 140        3S          0.00017   0.00000  -0.00011   0.00000  -0.00396
 141        3PX         0.00002   0.00000   0.00005   0.00000  -0.00018
 142        3PY         0.00000   0.00005   0.00000  -0.00004   0.00000
 143        3PZ        -0.00001   0.00000   0.00002   0.00000   0.00005
 144        4S         -0.00047   0.00000   0.00039   0.00000   0.00470
 145        4PX        -0.00020   0.00000   0.00003   0.00000   0.00148
 146        4PY         0.00000  -0.00005   0.00000   0.00000   0.00000
 147        4PZ         0.00015   0.00000  -0.00018   0.00000  -0.00035
 148        5D 0       -0.00001   0.00000   0.00001   0.00000  -0.00006
 149        5D+1        0.00001   0.00000  -0.00001   0.00000  -0.00003
 150        5D-1        0.00000   0.00000   0.00000   0.00000   0.00000
 151        5D+2       -0.00002   0.00000   0.00000   0.00000   0.00010
 152        5D-2        0.00000   0.00001   0.00000  -0.00002   0.00000
 153 9   Cl 1S          0.00014   0.00000   0.00008   0.00000  -0.70461
 154        2S         -0.00001   0.00000  -0.00001   0.00000  -0.00895
 155        2PX         0.00000   0.00000   0.00001   0.00000   0.00004
 156        2PY         0.00000  -0.00001   0.00000  -0.00001   0.00000
 157        2PZ         0.00000   0.00000   0.00000   0.00000   0.00001
 158        3S         -0.00017   0.00000  -0.00011   0.00000   0.00396
 159        3PX         0.00002   0.00000  -0.00005   0.00000  -0.00018
 160        3PY         0.00000   0.00005   0.00000   0.00004   0.00000
 161        3PZ         0.00001   0.00000   0.00002   0.00000  -0.00005
 162        4S          0.00047   0.00000   0.00039   0.00000  -0.00470
 163        4PX        -0.00020   0.00000  -0.00003   0.00000   0.00148
 164        4PY         0.00000  -0.00005   0.00000   0.00000   0.00000
 165        4PZ        -0.00015   0.00000  -0.00018   0.00000   0.00035
 166        5D 0        0.00001   0.00000   0.00001   0.00000   0.00006
 167        5D+1        0.00001   0.00000   0.00001   0.00000  -0.00003
 168        5D-1        0.00000   0.00000   0.00000   0.00000   0.00000
 169        5D+2        0.00002   0.00000   0.00000   0.00000  -0.00010
 170        5D-2        0.00000  -0.00001   0.00000  -0.00002   0.00000
 171 10  Cl 1S          0.00000  -0.00014   0.00008   0.00000   0.00000
 172        2S          0.00000   0.00001  -0.00001   0.00000   0.00000
 173        2PX        -0.00001   0.00000   0.00000   0.00001   0.00002
 174        2PY         0.00000   0.00000  -0.00001   0.00000   0.00000
 175        2PZ         0.00000   0.00000   0.00000   0.00000   0.00000
 176        3S          0.00000   0.00017  -0.00011   0.00000   0.00000
 177        3PX         0.00005   0.00000   0.00000  -0.00004  -0.00007
 178        3PY         0.00000   0.00002   0.00005   0.00000   0.00000
 179        3PZ         0.00000  -0.00001   0.00002   0.00000   0.00000
 180        4S          0.00000  -0.00047   0.00039   0.00000   0.00000
 181        4PX        -0.00005   0.00000   0.00000   0.00000  -0.00020
 182        4PY         0.00000  -0.00020   0.00003   0.00000   0.00000
 183        4PZ         0.00000   0.00015  -0.00018   0.00000   0.00000
 184        5D 0        0.00000  -0.00001   0.00001   0.00000   0.00000
 185        5D+1        0.00000   0.00000   0.00000   0.00000   0.00002
 186        5D-1        0.00000   0.00001  -0.00001   0.00000   0.00000
 187        5D+2        0.00000   0.00002   0.00000   0.00000   0.00000
 188        5D-2        0.00001   0.00000   0.00000  -0.00002  -0.00005
                           6         7         8         9        10
                        (E)--O    (A1)--O   (B2)--O   (E)--O    (E)--O
     Eigenvalues --  -101.22559-101.22558-101.22558  -9.19737  -9.19737
   1 1   Tc 1S          0.00000  -0.00007   0.00000   0.00000   0.00000
   2        2S          0.00000   0.00009   0.00000   0.00000   0.00000
   3        3S          0.00000  -0.00679   0.00000   0.00000   0.00000
   4        4PX         0.00000   0.00000   0.00000  -0.00021   0.00000
   5        4PY        -0.00024   0.00000   0.00000   0.00000  -0.00021
   6        4PZ         0.00000  -0.00001   0.00000   0.00000   0.00000
   7        5PX         0.00000   0.00000   0.00000   0.00027   0.00000
   8        5PY        -0.00397   0.00000   0.00000   0.00000   0.00027
   9        5PZ         0.00000   0.00047   0.00000   0.00000   0.00000
  10        6PX         0.00000   0.00000   0.00000  -0.00111   0.00000
  11        6PY        -0.00051   0.00000   0.00000   0.00000  -0.00111
  12        6PZ         0.00000   0.00106   0.00000   0.00000   0.00000
  13        7D 0        0.00000  -0.00005   0.00000   0.00000   0.00000
  14        7D+1        0.00000   0.00000   0.00000   0.00014   0.00000
  15        7D-1        0.00000   0.00000   0.00000   0.00000   0.00014
  16        7D+2        0.00000   0.00000   0.00007   0.00000   0.00000
  17        7D-2        0.00000   0.00000   0.00000   0.00000   0.00000
  18        8D 0        0.00000   0.00052   0.00000   0.00000   0.00000
  19        8D+1        0.00000   0.00000   0.00000   0.00116   0.00000
  20        8D-1       -0.00057   0.00000   0.00000   0.00000   0.00116
  21        8D+2        0.00000   0.00000   0.00070   0.00000   0.00000
  22        8D-2        0.00000   0.00000   0.00000   0.00000   0.00000
  23 2   Tc 1S          0.00000   0.00017   0.00000   0.00000   0.00000
  24        2S          0.00000   0.00008   0.00000   0.00000   0.00000
  25        3S          0.00000   0.00274   0.00000   0.00000   0.00000
  26        4PX         0.00000   0.00000   0.00000   0.00123   0.00000
  27        4PY         0.00004   0.00000   0.00000   0.00000   0.00123
  28        4PZ         0.00000   0.00005   0.00000   0.00000   0.00000
  29        5PX         0.00000   0.00000   0.00000   0.02044   0.00000
  30        5PY        -0.00006   0.00000   0.00000   0.00000   0.02044
  31        5PZ         0.00000   0.00110   0.00000   0.00000   0.00000
  32        6PX         0.00000   0.00000   0.00000   0.00302   0.00000
  33        6PY         0.00019   0.00000   0.00000   0.00000   0.00302
  34        6PZ         0.00000   0.00010   0.00000   0.00000   0.00000
  35        7D 0        0.00000  -0.00003   0.00000   0.00000   0.00000
  36        7D+1        0.00000   0.00000   0.00000   0.00008   0.00000
  37        7D-1        0.00003   0.00000   0.00000   0.00000   0.00008
  38        7D+2        0.00000   0.00000  -0.00008   0.00000   0.00000
  39        7D-2        0.00000   0.00000   0.00000   0.00000   0.00000
  40        8D 0        0.00000   0.00039   0.00000   0.00000   0.00000
  41        8D+1        0.00000   0.00000   0.00000  -0.00294   0.00000
  42        8D-1        0.00024   0.00000   0.00000   0.00000  -0.00294
  43        8D+2        0.00000   0.00000   0.00021   0.00000   0.00000
  44        8D-2        0.00000   0.00000   0.00000   0.00000   0.00000
  45 3   Cl 1S         -0.00010  -0.00008   0.00000  -0.14280  -0.14280
  46        2S         -0.00001  -0.00001   0.00000   0.51397   0.51397
  47        2PX         0.00000   0.00001   0.00001  -0.00084  -0.00090
  48        2PY        -0.00001   0.00001  -0.00001  -0.00090  -0.00084
  49        2PZ         0.00000   0.00000   0.00000   0.00014   0.00014
  50        3S         -0.00012  -0.00011   0.00000   0.02228   0.02228
  51        3PX        -0.00002  -0.00003  -0.00003  -0.00073  -0.00038
  52        3PY         0.00003  -0.00003   0.00003  -0.00038  -0.00073
  53        3PZ        -0.00001  -0.00002   0.00000   0.00021   0.00021
  54        4S          0.00033   0.00039   0.00000  -0.01843  -0.01843
  55        4PX        -0.00007  -0.00002   0.00000   0.00335   0.00436
  56        4PY        -0.00012  -0.00002   0.00000   0.00436   0.00335
  57        4PZ         0.00010   0.00018   0.00000  -0.00130  -0.00130
  58        5D 0        0.00001   0.00001   0.00000   0.00014   0.00014
  59        5D+1       -0.00001   0.00000   0.00000  -0.00002   0.00009
  60        5D-1        0.00000   0.00000   0.00000   0.00009  -0.00002
  61        5D+2        0.00000   0.00000   0.00002   0.00014  -0.00014
  62        5D-2        0.00001   0.00000   0.00000  -0.00025  -0.00025
  63 4   Cl 1S         -0.00010  -0.00008   0.00000   0.14280  -0.14280
  64        2S         -0.00001  -0.00001   0.00000  -0.51397   0.51397
  65        2PX         0.00000  -0.00001  -0.00001  -0.00084   0.00090
  66        2PY        -0.00001   0.00001  -0.00001   0.00090  -0.00084
  67        2PZ         0.00000   0.00000   0.00000  -0.00014   0.00014
  68        3S         -0.00012  -0.00011   0.00000  -0.02228   0.02228
  69        3PX         0.00002   0.00003   0.00003  -0.00073   0.00038
  70        3PY         0.00003  -0.00003   0.00003   0.00038  -0.00073
  71        3PZ        -0.00001  -0.00002   0.00000  -0.00021   0.00021
  72        4S          0.00033   0.00039   0.00000   0.01843  -0.01843
  73        4PX         0.00007   0.00002   0.00000   0.00335  -0.00436
  74        4PY        -0.00012  -0.00002   0.00000  -0.00436   0.00335
  75        4PZ         0.00010   0.00018   0.00000   0.00130  -0.00130
  76        5D 0        0.00001   0.00001   0.00000  -0.00014   0.00014
  77        5D+1        0.00001   0.00000   0.00000  -0.00002  -0.00009
  78        5D-1        0.00000   0.00000   0.00000  -0.00009  -0.00002
  79        5D+2        0.00000   0.00000   0.00002  -0.00014  -0.00014
  80        5D-2       -0.00001   0.00000   0.00000  -0.00025   0.00025
  81 5   Cl 1S          0.00010  -0.00008   0.00000  -0.14280   0.14280
  82        2S          0.00001  -0.00001   0.00000   0.51397  -0.51397
  83        2PX         0.00000   0.00001   0.00001  -0.00084   0.00090
  84        2PY        -0.00001  -0.00001   0.00001   0.00090  -0.00084
  85        2PZ         0.00000   0.00000   0.00000   0.00014  -0.00014
  86        3S          0.00012  -0.00011   0.00000   0.02228  -0.02228
  87        3PX         0.00002  -0.00003  -0.00003  -0.00073   0.00038
  88        3PY         0.00003   0.00003  -0.00003   0.00038  -0.00073
  89        3PZ         0.00001  -0.00002   0.00000   0.00021  -0.00021
  90        4S         -0.00033   0.00039   0.00000  -0.01843   0.01843
  91        4PX         0.00007  -0.00002   0.00000   0.00335  -0.00436
  92        4PY        -0.00012   0.00002   0.00000  -0.00436   0.00335
  93        4PZ        -0.00010   0.00018   0.00000  -0.00130   0.00130
  94        5D 0       -0.00001   0.00001   0.00000   0.00014  -0.00014
  95        5D+1        0.00001   0.00000   0.00000  -0.00002  -0.00009
  96        5D-1        0.00000   0.00000   0.00000  -0.00009  -0.00002
  97        5D+2        0.00000   0.00000   0.00002   0.00014   0.00014
  98        5D-2        0.00001   0.00000   0.00000   0.00025  -0.00025
  99 6   Cl 1S          0.00010  -0.00008   0.00000   0.14280   0.14280
 100        2S          0.00001  -0.00001   0.00000  -0.51397  -0.51397
 101        2PX         0.00000  -0.00001  -0.00001  -0.00084  -0.00090
 102        2PY        -0.00001  -0.00001   0.00001  -0.00090  -0.00084
 103        2PZ         0.00000   0.00000   0.00000  -0.00014  -0.00014
 104        3S          0.00012  -0.00011   0.00000  -0.02228  -0.02228
 105        3PX        -0.00002   0.00003   0.00003  -0.00073  -0.00038
 106        3PY         0.00003   0.00003  -0.00003  -0.00038  -0.00073
 107        3PZ         0.00001  -0.00002   0.00000  -0.00021  -0.00021
 108        4S         -0.00033   0.00039   0.00000   0.01843   0.01843
 109        4PX        -0.00007   0.00002   0.00000   0.00335   0.00436
 110        4PY        -0.00012   0.00002   0.00000   0.00436   0.00335
 111        4PZ        -0.00010   0.00018   0.00000   0.00130   0.00130
 112        5D 0       -0.00001   0.00001   0.00000  -0.00014  -0.00014
 113        5D+1       -0.00001   0.00000   0.00000  -0.00002   0.00009
 114        5D-1        0.00000   0.00000   0.00000   0.00009  -0.00002
 115        5D+2        0.00000   0.00000   0.00002  -0.00014   0.00014
 116        5D-2       -0.00001   0.00000   0.00000   0.00025   0.00025
 117 7   Cl 1S          0.70461   0.49819   0.49828   0.00000  -0.00007
 118        2S          0.00895   0.00633   0.00635   0.00000   0.00040
 119        2PX         0.00000   0.00000   0.00000   0.00005   0.00000
 120        2PY        -0.00004  -0.00002  -0.00004   0.00000   0.00001
 121        2PZ        -0.00001  -0.00001   0.00000   0.00000   0.00000
 122        3S         -0.00396  -0.00269  -0.00254   0.00000   0.00081
 123        3PX         0.00000   0.00000   0.00000  -0.00025   0.00000
 124        3PY         0.00018   0.00004   0.00018   0.00000  -0.00007
 125        3PZ         0.00005   0.00003   0.00002   0.00000  -0.00002
 126        4S          0.00470   0.00299   0.00207   0.00000  -0.00236
 127        4PX         0.00000   0.00000   0.00000   0.00025   0.00000
 128        4PY        -0.00148  -0.00050  -0.00071   0.00000   0.00094
 129        4PZ        -0.00035  -0.00026  -0.00015   0.00000   0.00075
 130        5D 0       -0.00006   0.00000  -0.00004   0.00000  -0.00005
 131        5D+1        0.00000   0.00000   0.00000   0.00001   0.00000
 132        5D-1        0.00003   0.00004   0.00003   0.00000  -0.00004
 133        5D+2       -0.00010  -0.00003  -0.00004   0.00000   0.00008
 134        5D-2        0.00000   0.00000   0.00000   0.00003   0.00000
 135 8   Cl 1S          0.00000   0.49827  -0.49820   0.00007   0.00000
 136        2S          0.00000   0.00634  -0.00635  -0.00040   0.00000
 137        2PX         0.00000   0.00002  -0.00004   0.00001   0.00000
 138        2PY        -0.00002   0.00000   0.00000   0.00000   0.00005
 139        2PZ         0.00000  -0.00001   0.00000   0.00000   0.00000
 140        3S          0.00000  -0.00269   0.00254  -0.00081   0.00000
 141        3PX         0.00000  -0.00004   0.00018  -0.00007   0.00000
 142        3PY         0.00007   0.00000   0.00000   0.00000  -0.00025
 143        3PZ         0.00000   0.00003  -0.00002   0.00002   0.00000
 144        4S          0.00000   0.00299  -0.00207   0.00236   0.00000
 145        4PX         0.00000   0.00050  -0.00071   0.00094   0.00000
 146        4PY         0.00020   0.00000   0.00000   0.00000   0.00025
 147        4PZ         0.00000  -0.00026   0.00015  -0.00075   0.00000
 148        5D 0        0.00000   0.00000   0.00004   0.00005   0.00000
 149        5D+1        0.00000  -0.00004   0.00003  -0.00004   0.00000
 150        5D-1       -0.00002   0.00000   0.00000   0.00000   0.00001
 151        5D+2        0.00000   0.00003  -0.00004   0.00008   0.00000
 152        5D-2        0.00005   0.00000   0.00000   0.00000  -0.00003
 153 9   Cl 1S          0.00000   0.49827  -0.49820  -0.00007   0.00000
 154        2S          0.00000   0.00634  -0.00635   0.00040   0.00000
 155        2PX         0.00000  -0.00002   0.00004   0.00001   0.00000
 156        2PY        -0.00002   0.00000   0.00000   0.00000   0.00005
 157        2PZ         0.00000  -0.00001   0.00000   0.00000   0.00000
 158        3S          0.00000  -0.00269   0.00254   0.00081   0.00000
 159        3PX         0.00000   0.00004  -0.00018  -0.00007   0.00000
 160        3PY         0.00007   0.00000   0.00000   0.00000  -0.00025
 161        3PZ         0.00000   0.00003  -0.00002  -0.00002   0.00000
 162        4S          0.00000   0.00299  -0.00207  -0.00236   0.00000
 163        4PX         0.00000  -0.00050   0.00071   0.00094   0.00000
 164        4PY         0.00020   0.00000   0.00000   0.00000   0.00025
 165        4PZ         0.00000  -0.00026   0.00015   0.00075   0.00000
 166        5D 0        0.00000   0.00000   0.00004  -0.00005   0.00000
 167        5D+1        0.00000   0.00004  -0.00003  -0.00004   0.00000
 168        5D-1       -0.00002   0.00000   0.00000   0.00000   0.00001
 169        5D+2        0.00000   0.00003  -0.00004  -0.00008   0.00000
 170        5D-2       -0.00005   0.00000   0.00000   0.00000   0.00003
 171 10  Cl 1S         -0.70461   0.49819   0.49828   0.00000   0.00007
 172        2S         -0.00895   0.00633   0.00635   0.00000  -0.00040
 173        2PX         0.00000   0.00000   0.00000   0.00005   0.00000
 174        2PY        -0.00004   0.00002   0.00004   0.00000   0.00001
 175        2PZ         0.00001  -0.00001   0.00000   0.00000   0.00000
 176        3S          0.00396  -0.00269  -0.00254   0.00000  -0.00081
 177        3PX         0.00000   0.00000   0.00000  -0.00025   0.00000
 178        3PY         0.00018  -0.00004  -0.00018   0.00000  -0.00007
 179        3PZ        -0.00005   0.00003   0.00002   0.00000   0.00002
 180        4S         -0.00470   0.00299   0.00207   0.00000   0.00236
 181        4PX         0.00000   0.00000   0.00000   0.00025   0.00000
 182        4PY        -0.00148   0.00050   0.00071   0.00000   0.00094
 183        4PZ         0.00035  -0.00026  -0.00015   0.00000  -0.00075
 184        5D 0        0.00006   0.00000  -0.00004   0.00000   0.00005
 185        5D+1        0.00000   0.00000   0.00000   0.00001   0.00000
 186        5D-1        0.00003  -0.00004  -0.00003   0.00000  -0.00004
 187        5D+2        0.00010  -0.00003  -0.00004   0.00000  -0.00008
 188        5D-2        0.00000   0.00000   0.00000  -0.00003   0.00000
                          11        12        13        14        15
                        (A1)--O   (B1)--O   (E)--O    (E)--O    (A1)--O
     Eigenvalues --    -9.19735  -9.19733  -9.15785  -9.15785  -9.15783
   1 1   Tc 1S         -0.00056   0.00000   0.00000   0.00000   0.00037
   2        2S         -0.00029   0.00000   0.00000   0.00000  -0.00040
   3        3S         -0.01492   0.00000   0.00000   0.00000   0.03684
   4        4PX         0.00000   0.00000  -0.00123   0.00000   0.00000
   5        4PY         0.00000   0.00000   0.00000   0.00123   0.00000
   6        4PZ         0.00022   0.00000   0.00000   0.00000   0.00004
   7        5PX         0.00000   0.00000  -0.02042   0.00000   0.00000
   8        5PY         0.00000   0.00000   0.00000   0.02042   0.00000
   9        5PZ         0.00593   0.00000   0.00000   0.00000  -0.00231
  10        6PX         0.00000   0.00000  -0.00301   0.00000   0.00000
  11        6PY         0.00000   0.00000   0.00000   0.00301   0.00000
  12        6PZ         0.00063   0.00000   0.00000   0.00000  -0.00562
  13        7D 0        0.00020   0.00000   0.00000   0.00000   0.00033
  14        7D+1        0.00000   0.00000   0.00007   0.00000   0.00000
  15        7D-1        0.00000   0.00000   0.00000  -0.00007   0.00000
  16        7D+2        0.00000   0.00000   0.00000   0.00000   0.00000
  17        7D-2        0.00000  -0.00040   0.00000   0.00000   0.00000
  18        8D 0       -0.00211   0.00000   0.00000   0.00000  -0.00291
  19        8D+1        0.00000   0.00000  -0.00290   0.00000   0.00000
  20        8D-1        0.00000   0.00000   0.00000   0.00290   0.00000
  21        8D+2        0.00000   0.00000   0.00000   0.00000   0.00000
  22        8D-2        0.00000   0.00111   0.00000   0.00000   0.00000
  23 2   Tc 1S          0.00037   0.00000   0.00000   0.00000  -0.00056
  24        2S         -0.00040   0.00000   0.00000   0.00000  -0.00029
  25        3S          0.03676   0.00000   0.00000   0.00000  -0.01500
  26        4PX         0.00000   0.00000   0.00021   0.00000   0.00000
  27        4PY         0.00000   0.00000   0.00000  -0.00021   0.00000
  28        4PZ        -0.00004   0.00000   0.00000   0.00000  -0.00022
  29        5PX         0.00000   0.00000  -0.00023   0.00000   0.00000
  30        5PY         0.00000   0.00000   0.00000   0.00023   0.00000
  31        5PZ         0.00226   0.00000   0.00000   0.00000  -0.00597
  32        6PX         0.00000   0.00000   0.00111   0.00000   0.00000
  33        6PY         0.00000   0.00000   0.00000  -0.00111   0.00000
  34        6PZ         0.00560   0.00000   0.00000   0.00000  -0.00063
  35        7D 0        0.00032   0.00000   0.00000   0.00000   0.00020
  36        7D+1        0.00000   0.00000   0.00014   0.00000   0.00000
  37        7D-1        0.00000   0.00000   0.00000  -0.00014   0.00000
  38        7D+2        0.00000   0.00000   0.00000   0.00000   0.00000
  39        7D-2        0.00000   0.00021   0.00000   0.00000   0.00000
  40        8D 0       -0.00290   0.00000   0.00000   0.00000  -0.00212
  41        8D+1        0.00000   0.00000   0.00117   0.00000   0.00000
  42        8D-1        0.00000   0.00000   0.00000  -0.00117   0.00000
  43        8D+2        0.00000   0.00000   0.00000   0.00000   0.00000
  44        8D-2        0.00000   0.00368   0.00000   0.00000   0.00000
  45 3   Cl 1S         -0.14281  -0.14283  -0.00008   0.00008   0.00007
  46        2S          0.51394   0.51385   0.00018  -0.00018  -0.00014
  47        2PX        -0.00091  -0.00083  -0.00003  -0.00002  -0.00003
  48        2PY        -0.00091  -0.00083   0.00002   0.00003  -0.00003
  49        2PZ         0.00015   0.00015   0.00000   0.00000  -0.00001
  50        3S          0.02177   0.02097  -0.00055   0.00055   0.00054
  51        3PX        -0.00027  -0.00076   0.00016   0.00009   0.00017
  52        3PY        -0.00027  -0.00076  -0.00009  -0.00016   0.00017
  53        3PZ         0.00016   0.00010  -0.00002   0.00002   0.00007
  54        4S         -0.01703  -0.01199   0.00165  -0.00165  -0.00206
  55        4PX         0.00197   0.00270  -0.00059   0.00034   0.00015
  56        4PY         0.00197   0.00270  -0.00034   0.00059   0.00015
  57        4PZ        -0.00136  -0.00077   0.00053  -0.00053  -0.00095
  58        5D 0       -0.00007   0.00013   0.00003  -0.00003  -0.00002
  59        5D+1        0.00008   0.00006  -0.00002   0.00003   0.00003
  60        5D-1        0.00008   0.00006  -0.00003   0.00002   0.00003
  61        5D+2        0.00000   0.00000  -0.00002  -0.00002   0.00000
  62        5D-2       -0.00005  -0.00010   0.00005  -0.00005  -0.00003
  63 4   Cl 1S         -0.14281   0.14283   0.00008   0.00008   0.00007
  64        2S          0.51394  -0.51385  -0.00018  -0.00018  -0.00014
  65        2PX         0.00091  -0.00083  -0.00003   0.00002   0.00003
  66        2PY        -0.00091   0.00083  -0.00002   0.00003  -0.00003
  67        2PZ         0.00015  -0.00015   0.00000   0.00000  -0.00001
  68        3S          0.02177  -0.02097   0.00055   0.00055   0.00054
  69        3PX         0.00027  -0.00076   0.00016  -0.00009  -0.00017
  70        3PY        -0.00027   0.00076   0.00009  -0.00016   0.00017
  71        3PZ         0.00016  -0.00010   0.00002   0.00002   0.00007
  72        4S         -0.01703   0.01199  -0.00165  -0.00165  -0.00206
  73        4PX        -0.00197   0.00270  -0.00059  -0.00034  -0.00015
  74        4PY         0.00197  -0.00270   0.00034   0.00059   0.00015
  75        4PZ        -0.00136   0.00077  -0.00053  -0.00053  -0.00095
[...]
  65        2PX         1.99067
  66        2PY         1.99067
  67        2PZ         1.99153
  68        3S          1.41185
  69        3PX         1.17514
  70        3PY         1.17514
  71        3PZ         1.25346
  72        4S          0.51391
  73        4PX         0.53566
  74        4PY         0.53566
  75        4PZ         0.61195
  76        5D 0        0.00239
  77        5D+1        0.00199
  78        5D-1        0.00199
  79        5D+2        0.00288
  80        5D-2        0.00476
  81 5   Cl 1S          1.99964
  82        2S          1.99736
  83        2PX         1.99067
  84        2PY         1.99067
  85        2PZ         1.99153
  86        3S          1.41185
  87        3PX         1.17514
  88        3PY         1.17514
  89        3PZ         1.25346
  90        4S          0.51391
  91        4PX         0.53566
  92        4PY         0.53566
  93        4PZ         0.61195
  94        5D 0        0.00239
  95        5D+1        0.00199
  96        5D-1        0.00199
  97        5D+2        0.00288
  98        5D-2        0.00476
  99 6   Cl 1S          1.99964
 100        2S          1.99736
 101        2PX         1.99067
 102        2PY         1.99067
 103        2PZ         1.99153
 104        3S          1.41185
 105        3PX         1.17514
 106        3PY         1.17514
 107        3PZ         1.25346
 108        4S          0.51391
 109        4PX         0.53566
 110        4PY         0.53566
 111        4PZ         0.61195
 112        5D 0        0.00239
 113        5D+1        0.00199
 114        5D-1        0.00199
 115        5D+2        0.00288
 116        5D-2        0.00476
 117 7   Cl 1S          1.99964
 118        2S          1.99730
 119        2PX         1.99208
 120        2PY         1.98978
 121        2PZ         1.99109
 122        3S          1.40159
 123        3PX         1.30296
 124        3PY         1.09676
 125        3PZ         1.20442
 126        4S          0.52329
 127        4PX         0.65972
 128        4PY         0.50015
 129        4PZ         0.61565
 130        5D 0        0.00168
 131        5D+1        0.00064
 132        5D-1        0.00286
 133        5D+2        0.00406
 134        5D-2        0.00516
 135 8   Cl 1S          1.99964
 136        2S          1.99730
 137        2PX         1.98978
 138        2PY         1.99208
 139        2PZ         1.99109
 140        3S          1.40159
 141        3PX         1.09676
 142        3PY         1.30296
 143        3PZ         1.20442
 144        4S          0.52329
 145        4PX         0.50015
 146        4PY         0.65972
 147        4PZ         0.61565
 148        5D 0        0.00168
 149        5D+1        0.00286
 150        5D-1        0.00064
 151        5D+2        0.00406
 152        5D-2        0.00516
 153 9   Cl 1S          1.99964
 154        2S          1.99730
 155        2PX         1.98978
 156        2PY         1.99208
 157        2PZ         1.99109
 158        3S          1.40159
 159        3PX         1.09676
 160        3PY         1.30296
 161        3PZ         1.20442
 162        4S          0.52329
 163        4PX         0.50015
 164        4PY         0.65972
 165        4PZ         0.61565
 166        5D 0        0.00168
 167        5D+1        0.00286
 168        5D-1        0.00064
 169        5D+2        0.00406
 170        5D-2        0.00516
 171 10  Cl 1S          1.99964
 172        2S          1.99730
 173        2PX         1.99208
 174        2PY         1.98978
 175        2PZ         1.99109
 176        3S          1.40159
 177        3PX         1.30296
 178        3PY         1.09676
 179        3PZ         1.20442
 180        4S          0.52329
 181        4PX         0.65972
 182        4PY         0.50015
 183        4PZ         0.61565
 184        5D 0        0.00168
 185        5D+1        0.00064
 186        5D-1        0.00286
 187        5D+2        0.00406
 188        5D-2        0.00516
          Condensed to atoms (all electrons):
              1          2          3          4          5          6
     1  Tc  14.090573   0.076045   0.001578   0.001578   0.001578   0.001578
     2  Tc   0.076045  13.957763   0.255757   0.255757   0.255757   0.255757
     3  Cl   0.001578   0.255757  17.062776  -0.060896  -0.060896  -0.004491
     4  Cl   0.001578   0.255757  -0.060896  17.062776  -0.004491  -0.060896
     5  Cl   0.001578   0.255757  -0.060896  -0.004491  17.062776  -0.060896
     6  Cl   0.001578   0.255757  -0.004491  -0.060896  -0.060896  17.062776
     7  Cl   0.198708   0.008388   0.001282   0.001282   0.000119   0.000119
     8  Cl   0.198708   0.008388   0.000119   0.001282   0.000119   0.001282
     9  Cl   0.198708   0.008388   0.001282   0.000119   0.001282   0.000119
    10  Cl   0.198708   0.008388   0.000119   0.000119   0.001282   0.001282
              7          8          9         10
     1  Tc   0.198708   0.198708   0.198708   0.198708
     2  Tc   0.008388   0.008388   0.008388   0.008388
     3  Cl   0.001282   0.000119   0.001282   0.000119
     4  Cl   0.001282   0.001282   0.000119   0.000119
     5  Cl   0.000119   0.000119   0.001282   0.001282
     6  Cl   0.000119   0.001282   0.000119   0.001282
     7  Cl  17.156530  -0.037140  -0.037140  -0.003317
     8  Cl  -0.037140  17.156530  -0.003317  -0.037140
     9  Cl  -0.037140  -0.003317  17.156530  -0.037140
    10  Cl  -0.003317  -0.037140  -0.037140  17.156530
 Mulliken atomic charges:
              1
     1  Tc   0.032239
     2  Tc  -0.090385
     3  Cl  -0.196632
     4  Cl  -0.196632
     5  Cl  -0.196632
     6  Cl  -0.196632
     7  Cl  -0.288832
     8  Cl  -0.288832
     9  Cl  -0.288832
    10  Cl  -0.288832
 Sum of Mulliken atomic charges =  -2.00000
 Mulliken charges with hydrogens summed into heavy atoms:
              1
     1  Tc   0.032239
     2  Tc  -0.090385
     3  Cl  -0.196632
     4  Cl  -0.196632
     5  Cl  -0.196632
     6  Cl  -0.196632
     7  Cl  -0.288832
     8  Cl  -0.288832
     9  Cl  -0.288832
    10  Cl  -0.288832
 Sum of Mulliken charges with hydrogens summed into heavy atoms =  -2.00000
 Electronic spatial extent (au):  <R**2>=           4282.7330
 Charge=             -2.0000 electrons
 Dipole moment (field-independent basis, Debye):
    X=              0.0000    Y=              0.0000    Z=             -3.2779  Tot=              3.2779
 Quadrupole moment (field-independent basis, Debye-Ang):
   XX=           -185.6131   YY=           -185.6131   ZZ=           -185.8685
   XY=              0.0000   XZ=              0.0000   YZ=              0.0000
 Traceless Quadrupole moment (field-independent basis, Debye-Ang):
   XX=              0.0851   YY=              0.0851   ZZ=             -0.1703
   XY=              0.0000   XZ=              0.0000   YZ=              0.0000
 Octapole moment (field-independent basis, Debye-Ang**2):
  XXX=              0.0000  YYY=              0.0000  ZZZ=            -10.4059  XYY=              0.0000
  XXY=              0.0000  XXZ=            -14.1855  XZZ=              0.0000  YZZ=              0.0000
  YYZ=            -14.1855  XYZ=              0.0000
 Hexadecapole moment (field-independent basis, Debye-Ang**3):
 XXXX=          -1914.0314 YYYY=          -1914.0314 ZZZZ=          -2453.5235 XXXY=              0.0000
 XXXZ=              0.0000 YYYX=              0.0000 YYYZ=              0.0000 ZZZX=              0.0000
 ZZZY=              0.0000 XXYY=           -640.0065 XXZZ=           -791.2382 YYZZ=           -791.2382
 XXYZ=              0.0000 YYXZ=              0.0000 ZZXY=              0.0000
 N-N= 1.915920341942D+03 E-N=-1.296588684556D+04  KE= 3.730108808037D+03
 Symmetry A1   KE= 1.305086237164D+03
 Symmetry A2   KE= 5.576670022027D+02
 Symmetry B1   KE= 9.336777843354D+02
 Symmetry B2   KE= 9.336777843354D+02
 Orbital energies and kinetic energies (alpha):
                                 1                 2
   1         (E)--O         -101.264240        137.058900
   2         (E)--O         -101.264240        137.058900
   3         (A1)--O        -101.264231        137.060120
   4         (B1)--O        -101.264224        137.061226
   5         (E)--O         -101.225592        137.058986
   6         (E)--O         -101.225592        137.058986
   7         (A1)--O        -101.225584        137.060211
   8         (B2)--O        -101.225577        137.061318
   9         (E)--O           -9.197373         21.701729
  10         (E)--O           -9.197373         21.701729
  11         (A1)--O          -9.197354         21.704434
  12         (B1)--O          -9.197328         21.707626
  13         (E)--O           -9.157847         21.702143
  14         (E)--O           -9.157847         21.702143
  15         (A1)--O          -9.157829         21.704839
  16         (B2)--O          -9.157803         21.708011
  17         (A1)--O          -6.956975         20.534921
  18         (B1)--O          -6.956973         20.532851
  19         (E)--O           -6.956969         20.534421
  20         (E)--O           -6.956969         20.534421
  21         (A2)--O          -6.952919         20.543109
  22         (E)--O           -6.952917         20.544533
  23         (E)--O           -6.952917         20.544533
  24         (B2)--O          -6.952900         20.548437
  25         (A1)--O          -6.951684         20.544713
  26         (B1)--O          -6.951671         20.546621
  27         (E)--O           -6.951666         20.547677
  28         (E)--O           -6.951666         20.547677
  29         (A1)--O          -6.917809         20.535252
  30         (B2)--O          -6.917805         20.533309
  31         (E)--O           -6.917800         20.535231
  32         (E)--O           -6.917800         20.535231
  33         (A1)--O          -6.914008         20.543416
  34         (B2)--O          -6.913996         20.545190
  35         (E)--O           -6.913992         20.545951
  36         (E)--O           -6.913992         20.545951
  37         (A2)--O          -6.911505         20.545665
  38         (E)--O           -6.911504         20.547055
  39         (E)--O           -6.911504         20.547055
  40         (B1)--O          -6.911487         20.550913
  41         (A1)--O          -2.554292          1.305368
  42         (A1)--O          -2.500873          1.314434
  43         (A1)--O          -1.510370          1.912974
  44         (E)--O           -1.509975          2.013278
  45         (E)--O           -1.509975          2.013278
  46         (A1)--O          -1.439005          2.132031
  47         (E)--O           -1.438772          2.013738
  48         (E)--O           -1.438772          2.013738
  49         (A1)--O          -0.569211          2.937957
  50         (B1)--O          -0.548361          3.175892
  51         (E)--O           -0.546903          3.159223
  52         (E)--O           -0.546903          3.159223
  53         (A1)--O          -0.528676          2.947439
  54         (B2)--O          -0.507657          3.171823
  55         (E)--O           -0.507122          3.152079
  56         (E)--O           -0.507122          3.152079
  57         (B1)--O          -0.177921          2.256471
  58         (A1)--O          -0.169749          2.102599
  59         (B2)--O          -0.154414          1.857078
  60         (E)--O           -0.145967          1.988330
  61         (E)--O           -0.145967          1.988330
  62         (A1)--O          -0.129650          2.101814
  63         (B2)--O          -0.122211          2.236510
  64         (B1)--O          -0.112405          1.850208
  65         (E)--O           -0.111921          2.061798
  66         (E)--O           -0.111921          2.061798
  67         (A1)--O          -0.109731          1.922541
  68         (E)--O           -0.087393          2.177672
  69         (E)--O           -0.087393          2.177672
  70         (A1)--O          -0.076889          2.091672
  71         (E)--O           -0.061245          2.386065
  72         (E)--O           -0.061245          2.386065
  73         (A1)--O          -0.058344          2.039512
  74         (B1)--O          -0.054985          2.427316
  75         (E)--O           -0.041980          2.359096
  76         (E)--O           -0.041980          2.359096
  77         (A2)--O          -0.033852          2.608500
  78         (B2)--O          -0.022788          2.385197
  79         (E)--O           -0.022330          2.372145
  80         (E)--O           -0.022330          2.372145
  81         (E)--O           -0.002344          2.378842
  82         (E)--O           -0.002344          2.378842
  83         (A2)--O           0.006115          2.591355
  84         (B1)--O           0.053785          2.435748
  85         (B2)--V           0.059408          2.439338
  86         (E)--V            0.141834          2.675364
  87         (E)--V            0.141834          2.675364
  88         (A1)--V           0.151191          2.413863
  89         (B1)--V           0.164100          2.921834
  90         (A1)--V           0.213582          0.263773
  91         (B2)--V           0.227148          2.829991
  92         (A1)--V           0.240650          0.343100
  93         (E)--V            0.248955          0.362558
  94         (E)--V            0.248955          0.362558
  95         (E)--V            0.263927          0.377085
  96         (E)--V            0.263927          0.377085
  97         (A1)--V           0.291495          1.599742
  98         (A1)--V           0.332621          0.800173
  99         (A1)--V           0.388318          1.446160
 100         (A1)--V           0.463942          0.887676
 101         (E)--V            0.468764          1.593698
 102         (E)--V            0.468764          1.593698
 103         (A1)--V           0.531312          2.259718
 104         (E)--V            0.546019          1.334512
 105         (E)--V            0.546019          1.334512
 106         (B1)--V           0.585314          2.265162
 107         (B2)--V           0.595507          1.744294
 108         (B2)--V           0.617220          2.355794
 109         (B1)--V           0.635131          1.673671
 110         (A1)--V           0.637027          2.060569
 111         (E)--V            0.647581          1.859321
 112         (E)--V            0.647581          1.859321
 113         (B2)--V           0.655528          2.769335
 114         (E)--V            0.661924          2.293649
 115         (E)--V            0.661924          2.293649
 116         (B1)--V           0.672113          2.786410
 117         (E)--V            0.697595          2.221958
 118         (E)--V            0.697595          2.221958
 119         (A1)--V           0.717613          2.739504
 120         (E)--V            0.721604          2.757422
 121         (E)--V            0.721604          2.757422
 122         (E)--V            0.758209          2.847322
 123         (E)--V            0.758209          2.847323
 124         (A1)--V           0.773840          3.091160
 125         (E)--V            0.782582          2.745213
 126         (E)--V            0.782582          2.745213
 127         (A2)--V           0.794781          2.684909
 128         (B1)--V           0.801931          2.658528
 129         (B2)--V           0.811423          2.728540
 130         (E)--V            0.820012          2.794660
 131         (E)--V            0.820012          2.794660
 132         (A1)--V           0.830009          2.758911
 133         (B1)--V           0.833719          2.688726
 134         (E)--V            0.859354          2.813675
 135         (E)--V            0.859354          2.813675
 136         (A2)--V           0.860324          2.748522
 137         (B2)--V           0.865619          2.614082
 138         (A1)--V           0.894448          2.895804
 139         (A1)--V           0.936823          2.858087
 140         (E)--V            0.960097          3.081237
 141         (E)--V            0.960097          3.081237
 142         (B1)--V           0.974750          2.888380
 143         (B2)--V           0.994087          2.878277
 144         (E)--V            1.018330          2.798147
 145         (E)--V            1.018330          2.798147
 146         (A1)--V           1.042974          2.829201
 147         (B1)--V           1.119053          2.641640
 148         (A2)--V           1.122521          2.628458
 149         (E)--V            1.122844          2.655656
 150         (E)--V            1.122844          2.655656
 151         (A1)--V           1.128564          2.656472
 152         (E)--V            1.133433          2.660171
 153         (E)--V            1.133433          2.660171
 154         (B2)--V           1.135264          2.656785
 155         (A2)--V           1.156843          2.672926
 156         (B2)--V           1.157624          2.643389
 157         (E)--V            1.160049          2.684540
 158         (E)--V            1.160049          2.684540
 159         (A1)--V           1.165073          2.691380
 160         (E)--V            1.166469          2.681570
 161         (E)--V            1.166469          2.681570
 162         (B1)--V           1.168984          2.657350
 163         (A2)--V           1.173967          2.732136
 164         (E)--V            1.184586          2.863929
 165         (E)--V            1.184586          2.863929
 166         (A2)--V           1.212712          2.805441
 167         (E)--V            1.215351          2.854791
 168         (E)--V            1.215351          2.854791
 169         (A1)--V           1.217034          2.820280
 170         (B1)--V           1.240875          3.107826
 171         (A1)--V           1.255746          2.716143
 172         (B2)--V           1.268744          3.043447
 173         (A1)--V           1.315506          2.851492
 174         (E)--V            1.324664          2.933800
 175         (E)--V            1.324664          2.933800
 176         (E)--V            1.412276          2.753794
 177         (E)--V            1.412276          2.753794
 178         (B1)--V           1.412512          2.913992
 179         (B2)--V           1.416955          3.030122
 180         (A1)--V           1.455928          2.962778
 181         (E)--V            1.464077          2.935026
 182         (E)--V            1.464077          2.935026
 183         (E)--V            1.512311          3.094879
 184         (E)--V            1.512311          3.094879
 185         (B2)--V           1.592316          3.063073
 186         (B1)--V           1.594636          3.092999
 187         (A1)--V           9.052805          2.613661
 188         (A1)--V          17.874771          4.131533
 Total kinetic energy from orbitals= 3.730108808037D+03
 No NMR shielding tensors so no spin-rotation constants.
 Leave Link  601 at Tue May  5 12:47:40 2015, MaxMem= 1073741824 cpu:       4.5
 (Enter /usr/g09/l9999.exe)
 1\1\GINC-LSQC07\SP\RB3LYP\GenECP\Cl8Tc2(2-)\LITAO\05-May-2015\0\\#p b3
 lyp/genecp pop=full\\Title Card Required\\-2,1\Tc,0,0.,0.,0.\Tc,0,0.,0
 .,2.24015797\Cl,0,0.84967788,2.05130385,2.782\Cl,0,2.05130385,-0.84967
 788,2.782\Cl,0,-2.05130385,0.84967788,2.782\Cl,0,-0.84967788,-2.051303
 85,2.782\Cl,0,2.05130385,0.84967788,-0.54\Cl,0,0.84967788,-2.05130385,
 -0.54\Cl,0,-0.84967788,2.05130385,-0.54\Cl,0,-2.05130385,-0.84967788,-
 0.54\\Version=EM64L-G09RevA.01\State=1-A1\HF=-3842.0289311\RMSD=2.993e
 -09\Dipole=0.,0.,1.2896166\Quadrupole=0.0632948,0.0632948,-0.1265896,0
 .,0.,0.\PG=C04V [C4(Tc1Tc1),2SGV(Cl2),2SGD(Cl2)]\\@


 IF I HAVE SEEN FARTHER, IT IS BY STANDING ON THE
 SHOULDERS OF GIANTS. -- SIR ISAAC NEWTON
 Job cpu time:  0 days  0 hours  2 minutes  7.7 seconds.
 File lengths (MBytes):  RWF=     19 Int=      0 D2E=      0 Chk=      2 Scr=      1
 Normal termination of Gaussian 09 at Tue May  5 12:47:40 2015.
