 Entering Gaussian System, Link 0=g09
 Input=tccl8-opt.gjf
 Output=tccl8-opt.log
 Initial command:
 /usr/g09/l1.exe /scratch/litao/gaussian/Gau-3334.inp -scrdir=/scratch/litao/gaussian/
 Entering Link 1 = /usr/g09/l1.exe PID=      3336.
  
 Copyright (c) 1988,1990,1992,1993,1995,1998,2003,2009, Gaussian, Inc.
                  All Rights Reserved.
  
 This is part of the Gaussian(R) 09 program.  It is based on
 the Gaussian(R) 03 system (copyright 2003, Gaussian, Inc.),
 the Gaussian(R) 98 system (copyright 1998, Gaussian, Inc.),
 the Gaussian(R) 94 system (copyright 1995, Gaussian, Inc.),
 the Gaussian 92(TM) system (copyright 1992, Gaussian, Inc.),
 the Gaussian 90(TM) system (copyright 1990, Gaussian, Inc.),
 the Gaussian 88(TM) system (copyright 1988, Gaussian, Inc.),
 the Gaussian 86(TM) system (copyright 1986, Carnegie Mellon
 University), and the Gaussian 82(TM) system (copyright 1983,
 Carnegie Mellon University). Gaussian is a federally registered
 trademark of Gaussian, Inc.
  
 This software contains proprietary and confidential information,
 including trade secrets, belonging to Gaussian, Inc.
  
 This software is provided under written license and may be
 used, copied, transmitted, or stored only in accord with that
 written license.
  
 The following legend is applicable only to US Government
 contracts under FAR:
  
                    RESTRICTED RIGHTS LEGEND
  
 Use, reproduction and disclosure by the US Government is
 subject to restrictions as set forth in subparagraphs (a)
 and (c) of the Commercial Computer Software - Restricted
 Rights clause in FAR 52.227-19.
  
 Gaussian, Inc.
 340 Quinnipiac St., Bldg. 40, Wallingford CT 06492
  
  
 ---------------------------------------------------------------
 Warning -- This program may not be used in any manner that
 competes with the business of Gaussian, Inc. or will provide
 assistance to any competitor of Gaussian, Inc.  The licensee
 of this program is prohibited from giving any competitor of
 Gaussian, Inc. access to this program.  By using this program,
 the user acknowledges that Gaussian, Inc. is engaged in the
 business of creating and licensing software in the field of
 computational chemistry and represents and warrants to the
 licensee that it is not a competitor of Gaussian, Inc. and that
 it will not use this program in any manner prohibited above.
 ---------------------------------------------------------------
  

 Cite this work as:
 Gaussian 09, Revision A.01,
 M. J. Frisch, G. W. Trucks, H. B. Schlegel, G. E. Scuseria, 
 M. A. Robb, J. R. Cheeseman, G. Scalmani, V. Barone, B. Mennucci, 
 G. A. Petersson, H. Nakatsuji, M. Caricato, X. Li, H. P. Hratchian, 
 A. F. Izmaylov, J. Bloino, G. Zheng, J. L. Sonnenberg, M. Hada, 
 M. Ehara, K. Toyota, R. Fukuda, J. Hasegawa, M. Ishida, T. Nakajima, 
 Y. Honda, O. Kitao, H. Nakai, T. Vreven, J. A. Montgomery, Jr., 
 J. E. Peralta, F. Ogliaro, M. Bearpark, J. J. Heyd, E. Brothers, 
 K. N. Kudin, V. N. Staroverov, R. Kobayashi, J. Normand, 
 K. Raghavachari, A. Rendell, J. C. Burant, S. S. Iyengar, J. Tomasi, 
 M. Cossi, N. Rega, J. M. Millam, M. Klene, J. E. Knox, J. B. Cross, 
 V. Bakken, C. Adamo, J. Jaramillo, R. Gomperts, R. E. Stratmann, 
 O. Yazyev, A. J. Austin, R. Cammi, C. Pomelli, J. W. Ochterski, 
 R. L. Martin, K. Morokuma, V. G. Zakrzewski, G. A. Voth, 
 P. Salvador, J. J. Dannenberg, S. Dapprich, A. D. Daniels, 
 O. Farkas, J. B. Foresman, J. V. Ortiz, J. Cioslowski, 
 and D. J. Fox, Gaussian, Inc., Wallingford CT, 2009.
 
 ******************************************
 Gaussian 09:  EM64L-G09RevA.01  8-May-2009
                 5-May-2015 
 ******************************************
 %nprocshared=8
 Will use up to    8 processors via shared memory.
 %mem=8GB
 %chk=tccl8-opt.chk
 --------------------------
 #opt b3lyp/genecp pop=full
 --------------------------
 1/14=-1,18=20,19=15,26=3,38=1/1,3;
 2/9=110,12=2,17=6,18=5,40=1/2;
 3/5=7,11=2,16=1,17=8,25=1,30=1,71=1,74=-5/1,2,3;
 4//1;
 5/5=2,38=5/2;
 6/7=3,28=1/1;
 7//1,2,3,16;
 1/14=-1,18=20,19=15/3(2);
 2/9=110/2;
 99//99;
 2/9=110/2;
 3/5=7,6=1,11=2,16=1,17=8,25=1,30=1,71=1,74=-5,82=7/1,2,3;
 4/5=5,16=3/1;
 5/5=2,38=5/2;
 7//1,2,3,16;
 1/14=-1,18=20,19=15/3(-5);
 2/9=110/2;
 6/7=3,19=2,28=1/1;
 99/9=1/99;
 -------------------
 Title Card Required
 -------------------
 Symbolic Z-matrix:
 Charge = -2 Multiplicity = 1
 Tc                    0.        0.        0. 
 Tc                    0.        0.        2.24016 
 Cl                    1.57      1.57      2.782 
 Cl                    1.57     -1.57      2.782 
 Cl                   -1.57      1.57      2.782 
 Cl                   -1.57     -1.57      2.782 
 Cl                    1.57      1.57     -0.54 
 Cl                    1.57     -1.57     -0.54 
 Cl                   -1.57      1.57     -0.54 
 Cl                   -1.57     -1.57     -0.54 
 

 GradGradGradGradGradGradGradGradGradGradGradGradGradGradGradGradGradGrad
 Berny optimization.
 Initialization pass.
                           ----------------------------
                           !    Initial Parameters    !
                           ! (Angstroms and Degrees)  !
 --------------------------                            --------------------------
 ! Name  Definition              Value          Derivative Info.                !
 --------------------------------------------------------------------------------
 ! R1    R(1,2)                  2.2402         estimate D2E/DX2                !
 ! R2    R(1,7)                  2.285          estimate D2E/DX2                !
 ! R3    R(1,8)                  2.285          estimate D2E/DX2                !
 ! R4    R(1,9)                  2.285          estimate D2E/DX2                !
 ! R5    R(1,10)                 2.285          estimate D2E/DX2                !
 ! R6    R(2,3)                  2.2855         estimate D2E/DX2                !
 ! R7    R(2,4)                  2.2855         estimate D2E/DX2                !
 ! R8    R(2,5)                  2.2855         estimate D2E/DX2                !
 ! R9    R(2,6)                  2.2855         estimate D2E/DX2                !
 ! A1    A(2,1,7)              103.6694         estimate D2E/DX2                !
 ! A2    A(2,1,8)              103.6694         estimate D2E/DX2                !
 ! A3    A(2,1,9)              103.6694         estimate D2E/DX2                !
 ! A4    A(2,1,10)             103.6694         estimate D2E/DX2                !
 ! A5    A(7,1,8)               86.7985         estimate D2E/DX2                !
 ! A6    A(7,1,9)               86.7985         estimate D2E/DX2                !
 ! A7    A(7,1,10)             152.6611         estimate D2E/DX2                !
 ! A8    A(8,1,9)              152.6611         estimate D2E/DX2                !
 ! A9    A(8,1,10)              86.7985         estimate D2E/DX2                !
 ! A10   A(9,1,10)              86.7985         estimate D2E/DX2                !
 ! A11   A(1,2,3)              103.7143         estimate D2E/DX2                !
 ! A12   A(1,2,4)              103.7143         estimate D2E/DX2                !
 ! A13   A(1,2,5)              103.7143         estimate D2E/DX2                !
 ! A14   A(1,2,6)              103.7143         estimate D2E/DX2                !
 ! A15   A(3,2,4)               86.7779         estimate D2E/DX2                !
 ! A16   A(3,2,5)               86.7779         estimate D2E/DX2                !
 ! A17   A(3,2,6)              152.5714         estimate D2E/DX2                !
 ! A18   A(4,2,5)              152.5714         estimate D2E/DX2                !
 ! A19   A(4,2,6)               86.7779         estimate D2E/DX2                !
 ! A20   A(5,2,6)               86.7779         estimate D2E/DX2                !
 ! D1    D(7,1,2,3)              0.0            estimate D2E/DX2                !
 ! D2    D(7,1,2,4)            -90.0            estimate D2E/DX2                !
 ! D3    D(7,1,2,5)             90.0            estimate D2E/DX2                !
 ! D4    D(7,1,2,6)            180.0            estimate D2E/DX2                !
 ! D5    D(8,1,2,3)             90.0            estimate D2E/DX2                !
 ! D6    D(8,1,2,4)              0.0            estimate D2E/DX2                !
 ! D7    D(8,1,2,5)           -180.0            estimate D2E/DX2                !
 ! D8    D(8,1,2,6)            -90.0            estimate D2E/DX2                !
 ! D9    D(9,1,2,3)            -90.0            estimate D2E/DX2                !
 ! D10   D(9,1,2,4)            180.0            estimate D2E/DX2                !
 ! D11   D(9,1,2,5)              0.0            estimate D2E/DX2                !
 ! D12   D(9,1,2,6)             90.0            estimate D2E/DX2                !
 ! D13   D(10,1,2,3)           180.0            estimate D2E/DX2                !
 ! D14   D(10,1,2,4)            90.0            estimate D2E/DX2                !
 ! D15   D(10,1,2,5)           -90.0            estimate D2E/DX2                !
 ! D16   D(10,1,2,6)             0.0            estimate D2E/DX2                !
 --------------------------------------------------------------------------------
 Trust Radius=3.00D-01 FncErr=1.00D-07 GrdErr=1.00D-06
 Number of steps in this run=  55 maximum allowed number of steps= 100.
 GradGradGradGradGradGradGradGradGradGradGradGradGradGradGradGradGradGrad

                          Input orientation:                          
 ---------------------------------------------------------------------
 Center     Atomic      Atomic             Coordinates (Angstroms)
 Number     Number       Type             X           Y           Z
 ---------------------------------------------------------------------
      1         43           0        0.000000    0.000000    0.000000
      2         43           0        0.000000    0.000000    2.240158
      3         17           0        1.570000    1.570000    2.782000
      4         17           0        1.570000   -1.570000    2.782000
      5         17           0       -1.570000    1.570000    2.782000
      6         17           0       -1.570000   -1.570000    2.782000
      7         17           0        1.570000    1.570000   -0.540000
      8         17           0        1.570000   -1.570000   -0.540000
      9         17           0       -1.570000    1.570000   -0.540000
     10         17           0       -1.570000   -1.570000   -0.540000
 ---------------------------------------------------------------------
                    Distance matrix (angstroms):
                    1          2          3          4          5
     1  Tc   0.000000
     2  Tc   2.240158   0.000000
     3  Cl   3.559399   2.285474   0.000000
     4  Cl   3.559399   2.285474   3.140000   0.000000
     5  Cl   3.559399   2.285474   3.140000   4.440631   0.000000
     6  Cl   3.559399   2.285474   4.440631   3.140000   3.140000
     7  Cl   2.285038   3.557960   3.322000   4.571136   4.571136
     8  Cl   2.285038   3.557960   4.571136   3.322000   5.545709
     9  Cl   2.285038   3.557960   4.571136   5.545709   3.322000
    10  Cl   2.285038   3.557960   5.545709   4.571136   4.571136
                    6          7          8          9         10
     6  Cl   0.000000
     7  Cl   5.545709   0.000000
     8  Cl   4.571136   3.140000   0.000000
     9  Cl   4.571136   3.140000   4.440631   0.000000
    10  Cl   3.322000   4.440631   3.140000   3.140000   0.000000
 Stoichiometry    Cl8Tc2(2-)
 Framework group  C4V[C4(TcTc),2SGV(Cl4)]
 Deg. of freedom     5
 Full point group                 C4V     NOp   8
 Largest Abelian subgroup         C2V     NOp   4
 Largest concise Abelian subgroup C2V     NOp   4
                         Standard orientation:                         
 ---------------------------------------------------------------------
 Center     Atomic      Atomic             Coordinates (Angstroms)
 Number     Number       Type             X           Y           Z
 ---------------------------------------------------------------------
      1         43           0        0.000000    0.000000    1.120643
      2         43           0        0.000000    0.000000   -1.119515
      3         17           0        0.000000    2.220315   -1.661357
      4         17           0       -2.220315    0.000000   -1.661357
      5         17           0        2.220315    0.000000   -1.661357
      6         17           0        0.000000   -2.220315   -1.661357
      7         17           0        0.000000    2.220315    1.660643
      8         17           0       -2.220315    0.000000    1.660643
      9         17           0        2.220315    0.000000    1.660643
     10         17           0        0.000000   -2.220315    1.660643
 ---------------------------------------------------------------------
 Rotational constants (GHZ):      0.3664515      0.2956229      0.2956229
 General basis read from cards:  (5D, 7F)
 ======================================================================================================
                                       Pseudopotential Parameters
 ======================================================================================================
  Center     Atomic      Valence      Angular      Power
  Number     Number     Electrons     Momentum     of R      Exponent        Coefficient   SO-Coeffient
 ======================================================================================================
    1         43           15
                                      F and up 
                                                     0      501.1199409       -0.04921150    0.00000000
                                                     1      150.2468844      -20.14673080    0.00000000
                                                     2       46.7097914     -105.57928800    0.00000000
                                                     2       13.9339014      -41.59011970    0.00000000
                                                     2        4.9854069       -3.94151110    0.00000000
                                      S - F
                                                     0      108.1775995        2.82223740    0.00000000
                                                     1       23.6594351       46.73307080    0.00000000
                                                     2        5.7814977       90.53186570    0.00000000
                                      P - F
                                                     0       63.3062014        4.93907820    0.00000000
                                                     1       23.6935532       26.92296310    0.00000000
                                                     2       25.0525854      128.50797960    0.00000000
                                                     2        5.0717084       63.74902500    0.00000000
                                      D - F
                                                     0      102.7721397        2.99219020    0.00000000
                                                     1       45.6713756       28.18213790    0.00000000
                                                     2       48.2611997       89.05484650    0.00000000
                                                     2       15.7089115      121.18943250    0.00000000
                                                     2        3.9484576       25.58669730    0.00000000
    2         43           15
                                      F and up 
                                                     0      501.1199409       -0.04921150    0.00000000
                                                     1      150.2468844      -20.14673080    0.00000000
                                                     2       46.7097914     -105.57928800    0.00000000
                                                     2       13.9339014      -41.59011970    0.00000000
                                                     2        4.9854069       -3.94151110    0.00000000
                                      S - F
                                                     0      108.1775995        2.82223740    0.00000000
                                                     1       23.6594351       46.73307080    0.00000000
                                                     2        5.7814977       90.53186570    0.00000000
                                      P - F
                                                     0       63.3062014        4.93907820    0.00000000
                                                     1       23.6935532       26.92296310    0.00000000
                                                     2       25.0525854      128.50797960    0.00000000
                                                     2        5.0717084       63.74902500    0.00000000
                                      D - F
                                                     0      102.7721397        2.99219020    0.00000000
                                                     1       45.6713756       28.18213790    0.00000000
                                                     2       48.2611997       89.05484650    0.00000000
                                                     2       15.7089115      121.18943250    0.00000000
                                                     2        3.9484576       25.58669730    0.00000000
    3         17
                                   No pseudopotential on this center.
    4         17
                                   No pseudopotential on this center.
    5         17
                                   No pseudopotential on this center.
    6         17
                                   No pseudopotential on this center.
    7         17
                                   No pseudopotential on this center.
    8         17
                                   No pseudopotential on this center.
    9         17
                                   No pseudopotential on this center.
   10         17
                                   No pseudopotential on this center.
 ======================================================================================================
 There are    72 symmetry adapted basis functions of A1  symmetry.
 There are    24 symmetry adapted basis functions of A2  symmetry.
 There are    46 symmetry adapted basis functions of B1  symmetry.
 There are    46 symmetry adapted basis functions of B2  symmetry.
 Integral buffers will be    131072 words long.
 Raffenetti 2 integral format.
 Two-electron integral symmetry is turned on.
   188 basis functions,   514 primitive gaussians,   200 cartesian basis functions
    84 alpha electrons       84 beta electrons
       nuclear repulsion energy      1918.3778031440 Hartrees.
 NAtoms=   10 NActive=   10 NUniq=    4 SFac= 3.00D+00 NAtFMM=   80 NAOKFM=F Big=F
 One-electron integrals computed using PRISM.
   8 Symmetry operations used in ECPInt.
 ECPInt:  NShTT=    1596 NPrTT=   14825 LenC2=    1481 LenP2D=    8893.
 LDataN:  DoStor=T MaxTD1= 5 Len=  102
 NBasis=   188 RedAO= T  NBF=    72    24    46    46
 NBsUse=   188 1.00D-06 NBFU=    72    24    46    46
 Defaulting to unpruned grid for atomic number  43.
 Harris functional with IExCor=  402 diagonalized for initial guess.
 ExpMin= 2.46D-02 ExpMax= 2.52D+04 ExpMxC= 3.78D+03 IAcc=3 IRadAn=         0 AccDes= 0.00D+00
 HarFok:  IExCor=  402 AccDes= 0.00D+00 IRadAn=         0 IDoV= 1
 ScaDFX=  1.000000  1.000000  1.000000  1.000000
 Defaulting to unpruned grid for atomic number  43.
 Defaulting to unpruned grid for atomic number  43.
 Defaulting to unpruned grid for atomic number  43.
 Defaulting to unpruned grid for atomic number  43.
 Defaulting to unpruned grid for atomic number  43.
 Defaulting to unpruned grid for atomic number  43.
 Defaulting to unpruned grid for atomic number  43.
 Defaulting to unpruned grid for atomic number  43.
 FoFCou: FMM=F IPFlag=           0 FMFlag=      100000 FMFlg1=           0
         NFxFlg=           0 DoJE=T BraDBF=F KetDBF=T FulRan=T
         Omega=  0.000000  0.000000  1.000000  0.000000  0.000000 ICntrl=     500 IOpCl=  0
         NMat0=    1 NMatS0=    1 NMatT0=    0 NMatD0=    1 NMtDS0=    0 NMtDT0=    0
         I1Cent=           4 NGrid=           0.
 Petite list used in FoFCou.
 Initial guess orbital symmetries:
       Occupied  (E) (E) (B2) (A1) (E) (E) (A1) (B2) (E) (E) (B2)
                 (A1) (E) (E) (A1) (B2) (B2) (E) (E) (A1) (E) (E)
                 (A1) (B2) (B2) (A1) (E) (E) (A2) (B2) (A1) (E)
                 (E) (E) (E) (B1) (A2) (E) (E) (B1) (A1) (A1) (A1)
                 (E) (E) (E) (E) (A1) (A1) (A1) (B2) (E) (E) (B2)
                 (E) (E) (A1) (B1) (B2) (B1) (A1) (E) (E) (A1)
                 (B2) (E) (E) (E) (E) (B2) (A1) (E) (E) (E) (E)
                 (E) (E) (B2) (A2) (A2) (E) (E) (A1) (B1)
       Virtual   (B1) (A1) (B2) (E) (E) (A1) (B2) (A1) (E) (E)
                 (A1) (E) (E) (A1) (A1) (E) (E) (A1) (E) (E) (A1)
                 (B2) (B1) (B2) (B1) (E) (E) (B2) (B1) (E) (E)
                 (A1) (A1) (E) (E) (E) (E) (B1) (E) (E) (E) (E)
                 (A2) (A1) (B2) (E) (E) (B2) (A1) (A2) (E) (E)
                 (E) (E) (A1) (B2) (B2) (A1) (A1) (E) (E) (B2)
                 (A2) (B1) (A2) (E) (E) (B1) (B2) (E) (E) (E) (E)
                 (A1) (A1) (E) (E) (B2) (A2) (E) (E) (A2) (E) (E)
                 (A1) (B2) (A1) (A1) (E) (E) (B1) (B2) (B2) (E)
                 (E) (E) (E) (A1) (B1) (E) (E) (B2) (A1) (A1)
 The electronic state of the initial guess is 1-A1.
 Requested convergence on RMS density matrix=1.00D-08 within 128 cycles.
 Requested convergence on MAX density matrix=1.00D-06.
 Requested convergence on             energy=1.00D-06.
 No special actions if energy rises.
 Keep R1 ints in memory in canonical form, NReq=206321664.
 Defaulting to unpruned grid for atomic number  43.
 Defaulting to unpruned grid for atomic number  43.
 Defaulting to unpruned grid for atomic number  43.
 Defaulting to unpruned grid for atomic number  43.
 Defaulting to unpruned grid for atomic number  43.
 Defaulting to unpruned grid for atomic number  43.
 Defaulting to unpruned grid for atomic number  43.
 Defaulting to unpruned grid for atomic number  43.
 Density matrix breaks symmetry, PCut= 1.00D-04
 Density has only Abelian symmetry.
 Density matrix breaks symmetry, PCut= 1.00D-04
 Density has only Abelian symmetry.
 EnCoef did   100 forward-backward iterations
 Density matrix breaks symmetry, PCut= 1.00D-04
 Density has only Abelian symmetry.
 Density matrix breaks symmetry, PCut= 1.00D-04
 Density has only Abelian symmetry.
 Density matrix breaks symmetry, PCut= 1.00D-04
 Density has only Abelian symmetry.
 EnCoef did     4 forward-backward iterations
 Density matrix breaks symmetry, PCut= 1.00D-04
 Density has only Abelian symmetry.
 EnCoef did     7 forward-backward iterations
 Density matrix breaks symmetry, PCut= 1.00D-04
 Density has only Abelian symmetry.
 EnCoef did     4 forward-backward iterations
 Density matrix breaks symmetry, PCut= 1.00D-04
 Density has only Abelian symmetry.
 EnCoef did   100 forward-backward iterations
 Density matrix breaks symmetry, PCut= 1.00D-04
 Density has only Abelian symmetry.
 Density matrix breaks symmetry, PCut= 1.00D-04
 Density has only Abelian symmetry.
 Density matrix breaks symmetry, PCut= 1.00D-04
 Density has only Abelian symmetry.
 SCF Done:  E(RB3LYP) =  -3842.06192512     A.U. after   18 cycles
             Convg  =    0.5775D-08             -V/T =  2.0301

 **********************************************************************

            Population analysis using the SCF density.

 **********************************************************************

 Orbital symmetries:
       Occupied  (E) (E) (B2) (A1) (E) (E) (A1) (B2) (E) (E) (B2)
                 (A1) (E) (E) (A1) (B2) (B2) (A1) (E) (E) (A1)
                 (E) (E) (B2) (B2) (A1) (E) (E) (B2) (A1) (E) (E)
                 (A2) (E) (E) (B1) (A2) (E) (E) (B1) (A1) (A1)
                 (A1) (E) (E) (E) (E) (A1) (A1) (A1) (B2) (E) (E)
                 (B2) (E) (E) (A1) (B2) (B2) (E) (E) (B1) (A1)
                 (B1) (A1) (E) (E) (E) (E) (A1) (A1) (B2) (E) (E)
                 (E) (E) (E) (E) (B2) (A2) (A2) (E) (E) (B1)
       Virtual   (B1) (E) (E) (A1) (B2) (B2) (A1) (A1) (E) (E)
                 (E) (E) (A1) (A1) (A1) (E) (E) (A1) (A1) (E) (E)
                 (B2) (B2) (B1) (B1) (A1) (E) (E) (B1) (B2) (E)
                 (E) (E) (E) (A1) (B1) (E) (E) (E) (E) (E) (E)
                 (A1) (A2) (E) (E) (B2) (B2) (A1) (E) (E) (A2)
                 (A1) (B2) (E) (E) (B2) (A1) (A1) (E) (E) (B2)
                 (A2) (E) (E) (B1) (B2) (A2) (B1) (E) (E) (E) (E)
                 (A1) (A1) (E) (E) (B2) (A2) (E) (E) (A2) (E) (E)
                 (A1) (B2) (A1) (A1) (E) (E) (B1) (B2) (B2) (E)
                 (E) (E) (E) (A1) (B1) (E) (E) (B2) (A1) (A1)
 The electronic state is 1-A1.
 Alpha  occ. eigenvalues -- -101.24499-101.24499-101.24498-101.24497-101.24494
 Alpha  occ. eigenvalues -- -101.24494-101.24493-101.24493  -9.17756  -9.17756
 Alpha  occ. eigenvalues --   -9.17753  -9.17750  -9.17746  -9.17746  -9.17745
 Alpha  occ. eigenvalues --   -9.17742  -6.93740  -6.93736  -6.93736  -6.93736
 Alpha  occ. eigenvalues --   -6.93731  -6.93731  -6.93731  -6.93730  -6.93280
 Alpha  occ. eigenvalues --   -6.93280  -6.93279  -6.93279  -6.93275  -6.93274
 Alpha  occ. eigenvalues --   -6.93273  -6.93273  -6.93209  -6.93208  -6.93208
 Alpha  occ. eigenvalues --   -6.93206  -6.93203  -6.93203  -6.93203  -6.93201
 Alpha  occ. eigenvalues --   -2.53722  -2.52439  -1.51182  -1.48303  -1.48303
 Alpha  occ. eigenvalues --   -1.47292  -1.47292  -1.44139  -0.55329  -0.54443
 Alpha  occ. eigenvalues --   -0.53190  -0.53040  -0.53040  -0.52394  -0.52339
 Alpha  occ. eigenvalues --   -0.52339  -0.15904  -0.15873  -0.14300  -0.14282
 Alpha  occ. eigenvalues --   -0.14282  -0.14278  -0.13802  -0.12265  -0.11187
 Alpha  occ. eigenvalues --   -0.10437  -0.10437  -0.09357  -0.09357  -0.07297
 Alpha  occ. eigenvalues --   -0.06218  -0.05850  -0.04767  -0.04767  -0.04064
 Alpha  occ. eigenvalues --   -0.04064  -0.03666  -0.03666  -0.01886  -0.01703
 Alpha  occ. eigenvalues --   -0.01061  -0.00487  -0.00487   0.02845
 Alpha virt. eigenvalues --    0.08245   0.13880   0.13880   0.15169   0.18606
 Alpha virt. eigenvalues --    0.20085   0.21653   0.23822   0.25574   0.25574
 Alpha virt. eigenvalues --    0.25810   0.25810   0.28759   0.33576   0.38706
 Alpha virt. eigenvalues --    0.46462   0.46462   0.47558   0.52978   0.55762
 Alpha virt. eigenvalues --    0.55762   0.59877   0.59886   0.60734   0.62758
 Alpha virt. eigenvalues --    0.64002   0.64514   0.64514   0.66247   0.69651
 Alpha virt. eigenvalues --    0.69881   0.69881   0.70257   0.70257   0.73586
 Alpha virt. eigenvalues --    0.73928   0.74678   0.74678   0.74702   0.74702
 Alpha virt. eigenvalues --    0.78534   0.78534   0.79045   0.79926   0.81042
 Alpha virt. eigenvalues --    0.81042   0.81966   0.83130   0.83928   0.84673
 Alpha virt. eigenvalues --    0.84673   0.85583   0.86384   0.89813   0.90012
 Alpha virt. eigenvalues --    0.90012   0.91070   0.93058   0.94447   1.06638
 Alpha virt. eigenvalues --    1.06638   1.13381   1.14031   1.14044   1.14044
 Alpha virt. eigenvalues --    1.14253   1.14273   1.14433   1.14682   1.14700
 Alpha virt. eigenvalues --    1.14700   1.14991   1.14991   1.15076   1.17671
 Alpha virt. eigenvalues --    1.17893   1.17893   1.18018   1.18279   1.19407
 Alpha virt. eigenvalues --    1.19407   1.19913   1.21275   1.21275   1.21347
 Alpha virt. eigenvalues --    1.25399   1.26188   1.26939   1.28978   1.28978
 Alpha virt. eigenvalues --    1.33237   1.35550   1.43009   1.43965   1.43965
 Alpha virt. eigenvalues --    1.44071   1.44071   1.45190   1.52164   1.59334
 Alpha virt. eigenvalues --    1.59334   1.80364   8.92851  18.07647
     Molecular Orbital Coefficients:
                           1         2         3         4         5
                        (E)--O    (E)--O    (B2)--O   (A1)--O   (E)--O
     Eigenvalues --  -101.24499-101.24499-101.24498-101.24497-101.24494
   1 1   Tc 1S          0.00000   0.00000   0.00000  -0.00012   0.00000
   2        2S          0.00000   0.00000   0.00000   0.00007   0.00000
   3        3S          0.00000   0.00000   0.00000  -0.00720   0.00000
   4        4PX         0.00000   0.00030   0.00000   0.00000   0.00000
   5        4PY        -0.00030   0.00000   0.00000   0.00000   0.00001
   6        4PZ         0.00000   0.00000   0.00000  -0.00001   0.00000
   7        5PX         0.00000   0.00507   0.00000   0.00000   0.00000
   8        5PY        -0.00507   0.00000   0.00000   0.00000   0.00032
   9        5PZ         0.00000   0.00000   0.00000   0.00082   0.00000
  10        6PX         0.00000   0.00029   0.00000   0.00000   0.00000
  11        6PY        -0.00029   0.00000   0.00000   0.00000  -0.00010
  12        6PZ         0.00000   0.00000   0.00000   0.00099   0.00000
  13        7D 0        0.00000   0.00000   0.00000  -0.00002   0.00000
  14        7D+1        0.00000   0.00002   0.00000   0.00000   0.00000
  15        7D-1       -0.00002   0.00000   0.00000   0.00000   0.00001
  16        7D+2        0.00000   0.00000   0.00013   0.00000   0.00000
  17        7D-2        0.00000   0.00000   0.00000   0.00000   0.00000
  18        8D 0        0.00000   0.00000   0.00000   0.00033   0.00000
  19        8D+1        0.00000   0.00009   0.00000   0.00000   0.00000
  20        8D-1       -0.00009   0.00000   0.00000   0.00000  -0.00046
  21        8D+2        0.00000   0.00000   0.00045   0.00000   0.00000
  22        8D-2        0.00000   0.00000   0.00000   0.00000   0.00000
  23 2   Tc 1S          0.00000   0.00000   0.00000   0.00017   0.00000
  24        2S          0.00000   0.00000   0.00000   0.00003   0.00000
  25        3S          0.00000   0.00000   0.00000   0.00419   0.00000
  26        4PX         0.00000  -0.00019   0.00000   0.00000   0.00000
  27        4PY         0.00019   0.00000   0.00000   0.00000  -0.00024
  28        4PZ         0.00000   0.00000   0.00000   0.00007   0.00000
  29        5PX         0.00000  -0.00324   0.00000   0.00000   0.00000
  30        5PY         0.00324   0.00000   0.00000   0.00000  -0.00390
  31        5PZ         0.00000   0.00000   0.00000   0.00135   0.00000
  32        6PX         0.00000  -0.00009   0.00000   0.00000   0.00000
  33        6PY         0.00009   0.00000   0.00000   0.00000  -0.00030
  34        6PZ         0.00000   0.00000   0.00000   0.00043   0.00000
  35        7D 0        0.00000   0.00000   0.00000   0.00001   0.00000
  36        7D+1        0.00000   0.00002   0.00000   0.00000   0.00000
  37        7D-1       -0.00002   0.00000   0.00000   0.00000   0.00001
  38        7D+2        0.00000   0.00000  -0.00013   0.00000   0.00000
  39        7D-2        0.00000   0.00000   0.00000   0.00000   0.00000
  40        8D 0        0.00000   0.00000   0.00000   0.00018   0.00000
  41        8D+1        0.00000  -0.00032   0.00000   0.00000   0.00000
  42        8D-1        0.00032   0.00000   0.00000   0.00000   0.00034
  43        8D+2        0.00000   0.00000   0.00004   0.00000   0.00000
  44        8D-2        0.00000   0.00000   0.00000   0.00000   0.00000
  45 3   Cl 1S         -0.21838   0.00000  -0.17151  -0.01451   0.66991
  46        2S         -0.00276   0.00000  -0.00219  -0.00018   0.00851
  47        2PX         0.00000  -0.00001   0.00000   0.00000   0.00000
  48        2PY         0.00002   0.00000   0.00002   0.00000  -0.00004
  49        2PZ        -0.00001   0.00000  -0.00002   0.00000   0.00001
  50        3S          0.00148   0.00000   0.00103   0.00009  -0.00372
  51        3PX         0.00000   0.00007   0.00000   0.00000   0.00000
  52        3PY        -0.00008   0.00000  -0.00010  -0.00002   0.00016
  53        3PZ         0.00008   0.00000   0.00011  -0.00001  -0.00005
  54        4S         -0.00229   0.00000  -0.00082  -0.00010   0.00437
  55        4PX         0.00000   0.00008   0.00000   0.00000   0.00000
  56        4PY         0.00080   0.00000   0.00023   0.00001  -0.00136
  57        4PZ        -0.00035   0.00000  -0.00023   0.00005   0.00036
  58        5D 0        0.00001   0.00000   0.00000  -0.00001  -0.00005
  59        5D+1        0.00000   0.00001   0.00000   0.00000   0.00000
  60        5D-1        0.00004   0.00000   0.00000   0.00000  -0.00004
  61        5D+2        0.00004   0.00000   0.00001   0.00000  -0.00009
  62        5D-2        0.00000  -0.00004   0.00000   0.00000   0.00000
  63 4   Cl 1S          0.00000  -0.21839   0.17145  -0.01478   0.00000
  64        2S          0.00000  -0.00276   0.00219  -0.00019   0.00000
  65        2PX         0.00000  -0.00002   0.00002   0.00000   0.00000
  66        2PY         0.00001   0.00000   0.00000   0.00000  -0.00001
  67        2PZ         0.00000  -0.00001   0.00002   0.00000   0.00000
  68        3S          0.00000   0.00148  -0.00103   0.00009   0.00000
  69        3PX         0.00000   0.00008  -0.00010   0.00002   0.00000
  70        3PY        -0.00007   0.00000   0.00000   0.00000   0.00005
  71        3PZ         0.00000   0.00008  -0.00011  -0.00001   0.00000
  72        4S          0.00000  -0.00229   0.00082  -0.00010   0.00000
  73        4PX         0.00000  -0.00080   0.00023  -0.00001   0.00000
  74        4PY        -0.00008   0.00000   0.00000   0.00000   0.00022
  75        4PZ         0.00000  -0.00035   0.00023   0.00005   0.00000
  76        5D 0        0.00000   0.00001   0.00000  -0.00001   0.00000
  77        5D+1        0.00000  -0.00004   0.00000   0.00000   0.00000
  78        5D-1       -0.00001   0.00000   0.00000   0.00000   0.00003
  79        5D+2        0.00000  -0.00004   0.00001   0.00000   0.00000
  80        5D-2       -0.00004   0.00000   0.00000   0.00000   0.00005
  81 5   Cl 1S          0.00000   0.21839   0.17145  -0.01478   0.00000
  82        2S          0.00000   0.00276   0.00219  -0.00019   0.00000
  83        2PX         0.00000  -0.00002  -0.00002   0.00000   0.00000
  84        2PY         0.00001   0.00000   0.00000   0.00000  -0.00001
  85        2PZ         0.00000   0.00001   0.00002   0.00000   0.00000
  86        3S          0.00000  -0.00148  -0.00103   0.00009   0.00000
  87        3PX         0.00000   0.00008   0.00010  -0.00002   0.00000
  88        3PY        -0.00007   0.00000   0.00000   0.00000   0.00005
  89        3PZ         0.00000  -0.00008  -0.00011  -0.00001   0.00000
  90        4S          0.00000   0.00229   0.00082  -0.00010   0.00000
  91        4PX         0.00000  -0.00080  -0.00023   0.00001   0.00000
  92        4PY        -0.00008   0.00000   0.00000   0.00000   0.00022
  93        4PZ         0.00000   0.00035   0.00023   0.00005   0.00000
  94        5D 0        0.00000  -0.00001   0.00000  -0.00001   0.00000
  95        5D+1        0.00000  -0.00004   0.00000   0.00000   0.00000
  96        5D-1       -0.00001   0.00000   0.00000   0.00000   0.00003
  97        5D+2        0.00000   0.00004   0.00001   0.00000   0.00000
  98        5D-2        0.00004   0.00000   0.00000   0.00000  -0.00005
  99 6   Cl 1S          0.21838   0.00000  -0.17151  -0.01451  -0.66991
 100        2S          0.00276   0.00000  -0.00219  -0.00018  -0.00851
 101        2PX         0.00000  -0.00001   0.00000   0.00000   0.00000
 102        2PY         0.00002   0.00000  -0.00002   0.00000  -0.00004
 103        2PZ         0.00001   0.00000  -0.00002   0.00000  -0.00001
 104        3S         -0.00148   0.00000   0.00103   0.00009   0.00372
 105        3PX         0.00000   0.00007   0.00000   0.00000   0.00000
 106        3PY        -0.00008   0.00000   0.00010   0.00002   0.00016
 107        3PZ        -0.00008   0.00000   0.00011  -0.00001   0.00005
 108        4S          0.00229   0.00000  -0.00082  -0.00010  -0.00437
 109        4PX         0.00000   0.00008   0.00000   0.00000   0.00000
 110        4PY         0.00080   0.00000  -0.00023  -0.00001  -0.00136
 111        4PZ         0.00035   0.00000  -0.00023   0.00005  -0.00036
 112        5D 0       -0.00001   0.00000   0.00000  -0.00001   0.00005
 113        5D+1        0.00000   0.00001   0.00000   0.00000   0.00000
 114        5D-1        0.00004   0.00000   0.00000   0.00000  -0.00004
 115        5D+2       -0.00004   0.00000   0.00001   0.00000   0.00009
 116        5D-2        0.00000   0.00004   0.00000   0.00000   0.00000
 117 7   Cl 1S          0.66990   0.00000   0.46812   0.49772   0.21840
 118        2S          0.00850   0.00000   0.00597   0.00633   0.00279
 119        2PX         0.00000   0.00002   0.00000   0.00000   0.00000
 120        2PY        -0.00004   0.00000  -0.00004  -0.00002  -0.00001
 121        2PZ        -0.00002   0.00000  -0.00002   0.00000   0.00001
 122        3S         -0.00387   0.00000  -0.00248  -0.00262  -0.00100
 123        3PX         0.00000  -0.00008   0.00000   0.00000   0.00000
 124        3PY         0.00017   0.00000   0.00019   0.00005   0.00003
 125        3PZ         0.00009   0.00000   0.00008   0.00002  -0.00003
 126        4S          0.00489   0.00000   0.00200   0.00277   0.00073
 127        4PX         0.00000  -0.00023   0.00000   0.00000   0.00000
 128        4PY        -0.00157   0.00000  -0.00065  -0.00046  -0.00016
 129        4PZ        -0.00050   0.00000  -0.00026  -0.00019   0.00007
 130        5D 0       -0.00005   0.00000  -0.00003   0.00000  -0.00002
 131        5D+1        0.00000   0.00003   0.00000   0.00000   0.00000
 132        5D-1        0.00005   0.00000   0.00003   0.00003  -0.00001
 133        5D+2       -0.00009   0.00000  -0.00003  -0.00002  -0.00002
 134        5D-2        0.00000   0.00006   0.00000   0.00000   0.00000
 135 8   Cl 1S          0.00000   0.66990  -0.46746   0.49832   0.00000
 136        2S          0.00000   0.00850  -0.00596   0.00634   0.00000
 137        2PX         0.00000   0.00004  -0.00004   0.00002   0.00000
 138        2PY        -0.00002   0.00000   0.00000   0.00000   0.00001
 139        2PZ         0.00000  -0.00002   0.00002   0.00000   0.00000
 140        3S          0.00000  -0.00387   0.00248  -0.00263   0.00000
 141        3PX         0.00000  -0.00017   0.00019  -0.00005   0.00000
 142        3PY         0.00008   0.00000   0.00000   0.00000  -0.00002
 143        3PZ         0.00000   0.00009  -0.00008   0.00002   0.00000
 144        4S          0.00000   0.00489  -0.00200   0.00277   0.00000
 145        4PX         0.00000   0.00157  -0.00065   0.00046   0.00000
 146        4PY         0.00023   0.00000   0.00000   0.00000   0.00006
 147        4PZ         0.00000  -0.00050   0.00026  -0.00019   0.00000
 148        5D 0        0.00000  -0.00005   0.00003   0.00000   0.00000
 149        5D+1        0.00000  -0.00005   0.00003  -0.00003   0.00000
 150        5D-1       -0.00003   0.00000   0.00000   0.00000  -0.00001
 151        5D+2        0.00000   0.00009  -0.00003   0.00002   0.00000
 152        5D-2        0.00006   0.00000   0.00000   0.00000   0.00000
 153 9   Cl 1S          0.00000  -0.66990  -0.46746   0.49832   0.00000
 154        2S          0.00000  -0.00850  -0.00596   0.00634   0.00000
 155        2PX         0.00000   0.00004   0.00004  -0.00002   0.00000
 156        2PY        -0.00002   0.00000   0.00000   0.00000   0.00001
 157        2PZ         0.00000   0.00002   0.00002   0.00000   0.00000
 158        3S          0.00000   0.00387   0.00248  -0.00263   0.00000
 159        3PX         0.00000  -0.00017  -0.00019   0.00005   0.00000
 160        3PY         0.00008   0.00000   0.00000   0.00000  -0.00002
 161        3PZ         0.00000  -0.00009  -0.00008   0.00002   0.00000
 162        4S          0.00000  -0.00489  -0.00200   0.00277   0.00000
 163        4PX         0.00000   0.00157   0.00065  -0.00046   0.00000
 164        4PY         0.00023   0.00000   0.00000   0.00000   0.00006
 165        4PZ         0.00000   0.00050   0.00026  -0.00019   0.00000
 166        5D 0        0.00000   0.00005   0.00003   0.00000   0.00000
 167        5D+1        0.00000  -0.00005  -0.00003   0.00003   0.00000
 168        5D-1       -0.00003   0.00000   0.00000   0.00000  -0.00001
 169        5D+2        0.00000  -0.00009  -0.00003   0.00002   0.00000
 170        5D-2       -0.00006   0.00000   0.00000   0.00000   0.00000
 171 10  Cl 1S         -0.66990   0.00000   0.46812   0.49772  -0.21840
 172        2S         -0.00850   0.00000   0.00597   0.00633  -0.00279
 173        2PX         0.00000   0.00002   0.00000   0.00000   0.00000
 174        2PY        -0.00004   0.00000   0.00004   0.00002  -0.00001
 175        2PZ         0.00002   0.00000  -0.00002   0.00000  -0.00001
 176        3S          0.00387   0.00000  -0.00248  -0.00262   0.00100
 177        3PX         0.00000  -0.00008   0.00000   0.00000   0.00000
 178        3PY         0.00017   0.00000  -0.00019  -0.00005   0.00003
 179        3PZ        -0.00009   0.00000   0.00008   0.00002   0.00003
 180        4S         -0.00489   0.00000   0.00200   0.00277  -0.00073
 181        4PX         0.00000  -0.00023   0.00000   0.00000   0.00000
 182        4PY        -0.00157   0.00000   0.00065   0.00046  -0.00016
 183        4PZ         0.00050   0.00000  -0.00026  -0.00019  -0.00007
 184        5D 0        0.00005   0.00000  -0.00003   0.00000   0.00002
 185        5D+1        0.00000   0.00003   0.00000   0.00000   0.00000
 186        5D-1        0.00005   0.00000  -0.00003  -0.00003  -0.00001
 187        5D+2        0.00009   0.00000  -0.00003  -0.00002   0.00002
 188        5D-2        0.00000  -0.00006   0.00000   0.00000   0.00000
                           6         7         8         9        10
                        (E)--O    (A1)--O   (B2)--O   (E)--O    (E)--O
     Eigenvalues --  -101.24494-101.24493-101.24493  -9.17756  -9.17756
   1 1   Tc 1S          0.00000   0.00016   0.00000   0.00000   0.00000
   2        2S          0.00000   0.00003   0.00000   0.00000   0.00000
   3        3S          0.00000   0.00377   0.00001   0.00000   0.00000
   4        4PX        -0.00001   0.00000   0.00000   0.00000  -0.00153
   5        4PY         0.00000   0.00000   0.00000   0.00153   0.00000
   6        4PZ         0.00000  -0.00007   0.00000   0.00000   0.00000
   7        5PX        -0.00032   0.00000   0.00000   0.00000  -0.02559
   8        5PY         0.00000   0.00000   0.00000   0.02559   0.00000
   9        5PZ         0.00000  -0.00130   0.00000   0.00000   0.00000
  10        6PX         0.00010   0.00000   0.00000   0.00000  -0.00179
  11        6PY         0.00000   0.00000   0.00000   0.00179   0.00000
  12        6PZ         0.00000  -0.00037   0.00000   0.00000   0.00000
  13        7D 0        0.00000   0.00001   0.00000   0.00000   0.00000
  14        7D+1       -0.00001   0.00000   0.00000   0.00000  -0.00005
  15        7D-1        0.00000   0.00000   0.00000   0.00005   0.00000
  16        7D+2        0.00000   0.00000   0.00006   0.00000   0.00000
  17        7D-2        0.00000   0.00000   0.00000   0.00000   0.00000
  18        8D 0        0.00000   0.00020   0.00000   0.00000   0.00000
  19        8D+1        0.00046   0.00000   0.00000   0.00000  -0.00004
  20        8D-1        0.00000   0.00000   0.00000   0.00004   0.00000
  21        8D+2        0.00000   0.00000  -0.00044   0.00000   0.00000
  22        8D-2        0.00000   0.00000   0.00000   0.00000   0.00000
  23 2   Tc 1S          0.00000  -0.00011   0.00000   0.00000   0.00000
  24        2S          0.00000   0.00007   0.00000   0.00000   0.00000
  25        3S          0.00000  -0.00697  -0.00001   0.00000   0.00000
  26        4PX         0.00024   0.00000   0.00000   0.00000   0.00118
  27        4PY         0.00000   0.00000   0.00000  -0.00118   0.00000
  28        4PZ         0.00000   0.00001   0.00000   0.00000   0.00000
  29        5PX         0.00390   0.00000   0.00000   0.00000   0.01986
  30        5PY         0.00000   0.00000   0.00000  -0.01986   0.00000
  31        5PZ         0.00000  -0.00075   0.00000   0.00000   0.00000
  32        6PX         0.00030   0.00000   0.00000   0.00000   0.00107
  33        6PY         0.00000   0.00000   0.00000  -0.00107   0.00000
  34        6PZ         0.00000  -0.00097   0.00000   0.00000   0.00000
  35        7D 0        0.00000  -0.00002   0.00000   0.00000   0.00000
  36        7D+1       -0.00001   0.00000   0.00000   0.00000  -0.00009
  37        7D-1        0.00000   0.00000   0.00000   0.00009   0.00000
  38        7D+2        0.00000   0.00000  -0.00006   0.00000   0.00000
  39        7D-2        0.00000   0.00000   0.00000   0.00000   0.00000
  40        8D 0        0.00000   0.00034   0.00000   0.00000   0.00000
  41        8D+1       -0.00034   0.00000   0.00000   0.00000   0.00121
  42        8D-1        0.00000   0.00000   0.00000  -0.00121   0.00000
  43        8D+2        0.00000   0.00000  -0.00063   0.00000   0.00000
  44        8D-2        0.00000   0.00000   0.00000   0.00000   0.00000
  45 3   Cl 1S          0.00000   0.49903  -0.46672   0.09866   0.00000
  46        2S          0.00000   0.00635  -0.00595  -0.35528   0.00000
  47        2PX         0.00001   0.00000   0.00000   0.00000   0.00007
  48        2PY         0.00000  -0.00002   0.00004   0.00084   0.00000
  49        2PZ         0.00000   0.00000   0.00000  -0.00003   0.00000
  50        3S          0.00000  -0.00263   0.00238  -0.01654   0.00000
  51        3PX        -0.00005   0.00000   0.00000   0.00000  -0.00039
  52        3PY         0.00000   0.00005  -0.00017   0.00064   0.00000
  53        3PZ         0.00000  -0.00002   0.00002  -0.00046   0.00000
  54        4S          0.00000   0.00277  -0.00192   0.01664   0.00000
  55        4PX        -0.00022   0.00000   0.00000   0.00000  -0.00060
  56        4PY         0.00000  -0.00046   0.00066  -0.00534   0.00000
  57        4PZ         0.00000   0.00019  -0.00014   0.00214   0.00000
  58        5D 0        0.00000   0.00000   0.00004  -0.00008   0.00000
  59        5D+1       -0.00003   0.00000   0.00000   0.00000  -0.00006
  60        5D-1        0.00000  -0.00003   0.00003  -0.00018   0.00000
  61        5D+2        0.00000  -0.00003   0.00004  -0.00020   0.00000
  62        5D-2        0.00005   0.00000   0.00000   0.00000   0.00019
  63 4   Cl 1S          0.66991   0.49701   0.46887   0.00000   0.09866
  64        2S          0.00851   0.00632   0.00598   0.00000  -0.35528
  65        2PX         0.00004   0.00002   0.00004   0.00000  -0.00084
  66        2PY         0.00000   0.00000   0.00000  -0.00007   0.00000
  67        2PZ         0.00001   0.00000   0.00000   0.00000  -0.00003
  68        3S         -0.00372  -0.00262  -0.00239   0.00000  -0.01654
  69        3PX        -0.00016  -0.00005  -0.00017   0.00000  -0.00064
  70        3PY         0.00000   0.00000   0.00000   0.00039   0.00000
  71        3PZ        -0.00005  -0.00002  -0.00002   0.00000  -0.00046
  72        4S          0.00437   0.00276   0.00193   0.00000   0.01664
  73        4PX         0.00136   0.00046   0.00066   0.00000   0.00534
  74        4PY         0.00000   0.00000   0.00000   0.00060   0.00000
  75        4PZ         0.00036   0.00019   0.00014   0.00000   0.00214
  76        5D 0       -0.00005   0.00000  -0.00004   0.00000  -0.00008
  77        5D+1        0.00004   0.00003   0.00003   0.00000   0.00018
  78        5D-1        0.00000   0.00000   0.00000   0.00006   0.00000
  79        5D+2        0.00009   0.00002   0.00004   0.00000   0.00020
  80        5D-2        0.00000   0.00000   0.00000   0.00019   0.00000
  81 5   Cl 1S         -0.66991   0.49701   0.46887   0.00000  -0.09866
  82        2S         -0.00851   0.00632   0.00598   0.00000   0.35528
  83        2PX         0.00004  -0.00002  -0.00004   0.00000  -0.00084
  84        2PY         0.00000   0.00000   0.00000  -0.00007   0.00000
  85        2PZ        -0.00001   0.00000   0.00000   0.00000   0.00003
  86        3S          0.00372  -0.00262  -0.00239   0.00000   0.01654
  87        3PX        -0.00016   0.00005   0.00017   0.00000  -0.00064
  88        3PY         0.00000   0.00000   0.00000   0.00039   0.00000
  89        3PZ         0.00005  -0.00002  -0.00002   0.00000   0.00046
  90        4S         -0.00437   0.00276   0.00193   0.00000  -0.01664
  91        4PX         0.00136  -0.00046  -0.00066   0.00000   0.00534
  92        4PY         0.00000   0.00000   0.00000   0.00060   0.00000
  93        4PZ        -0.00036   0.00019   0.00014   0.00000  -0.00214
  94        5D 0        0.00005   0.00000  -0.00004   0.00000   0.00008
  95        5D+1        0.00004  -0.00003  -0.00003   0.00000   0.00018
  96        5D-1        0.00000   0.00000   0.00000   0.00006   0.00000
  97        5D+2       -0.00009   0.00002   0.00004   0.00000  -0.00020
  98        5D-2        0.00000   0.00000   0.00000  -0.00019   0.00000
  99 6   Cl 1S          0.00000   0.49903  -0.46672  -0.09866   0.00000
 100        2S          0.00000   0.00635  -0.00595   0.35528   0.00000
 101        2PX         0.00001   0.00000   0.00000   0.00000   0.00007
 102        2PY         0.00000   0.00002  -0.00004   0.00084   0.00000
 103        2PZ         0.00000   0.00000   0.00000   0.00003   0.00000
 104        3S          0.00000  -0.00263   0.00238   0.01654   0.00000
 105        3PX        -0.00005   0.00000   0.00000   0.00000  -0.00039
 106        3PY         0.00000  -0.00005   0.00017   0.00064   0.00000
 107        3PZ         0.00000  -0.00002   0.00002   0.00046   0.00000
 108        4S          0.00000   0.00277  -0.00192  -0.01664   0.00000
 109        4PX        -0.00022   0.00000   0.00000   0.00000  -0.00060
 110        4PY         0.00000   0.00046  -0.00066  -0.00534   0.00000
 111        4PZ         0.00000   0.00019  -0.00014  -0.00214   0.00000
 112        5D 0        0.00000   0.00000   0.00004   0.00008   0.00000
 113        5D+1       -0.00003   0.00000   0.00000   0.00000  -0.00006
 114        5D-1        0.00000   0.00003  -0.00003  -0.00018   0.00000
 115        5D+2        0.00000  -0.00003   0.00004   0.00020   0.00000
 116        5D-2       -0.00005   0.00000   0.00000   0.00000  -0.00019
 117 7   Cl 1S          0.00000   0.01504  -0.17144  -0.17617   0.00000
 118        2S          0.00000   0.00019  -0.00219   0.63421   0.00000
 119        2PX        -0.00001   0.00000   0.00000   0.00000  -0.00008
 120        2PY         0.00000   0.00000   0.00001  -0.00151   0.00000
 121        2PZ         0.00000   0.00000  -0.00001  -0.00010   0.00000
 122        3S          0.00000  -0.00007   0.00076   0.02820   0.00000
 123        3PX         0.00002   0.00000   0.00000   0.00000   0.00043
 124        3PY         0.00000  -0.00001  -0.00003  -0.00101   0.00000
 125        3PZ         0.00000   0.00001   0.00007  -0.00050   0.00000
 126        4S          0.00000   0.00006  -0.00062  -0.02541   0.00000
 127        4PX        -0.00006   0.00000   0.00000   0.00000   0.00104
 128        4PY         0.00000  -0.00002   0.00025   0.00778   0.00000
 129        4PZ         0.00000  -0.00006  -0.00009   0.00260   0.00000
 130        5D 0        0.00000  -0.00001   0.00002   0.00017   0.00000
 131        5D+1        0.00001   0.00000   0.00000   0.00000  -0.00012
 132        5D-1        0.00000   0.00000  -0.00002  -0.00020   0.00000
 133        5D+2        0.00000   0.00000   0.00002   0.00029   0.00000
 134        5D-2        0.00000   0.00000   0.00000   0.00000  -0.00025
 135 8   Cl 1S          0.21840   0.01426   0.17155   0.00000  -0.17617
 136        2S          0.00279   0.00018   0.00219   0.00000   0.63421
 137        2PX         0.00001   0.00000   0.00001   0.00000   0.00151
 138        2PY         0.00000   0.00000   0.00000   0.00008   0.00000
 139        2PZ         0.00001   0.00000   0.00001   0.00000  -0.00010
 140        3S         -0.00100  -0.00006  -0.00076   0.00000   0.02820
 141        3PX        -0.00003   0.00001  -0.00003   0.00000   0.00101
 142        3PY         0.00000   0.00000   0.00000  -0.00043   0.00000
 143        3PZ        -0.00003   0.00001  -0.00007   0.00000  -0.00050
 144        4S          0.00073   0.00006   0.00062   0.00000  -0.02541
 145        4PX         0.00016   0.00001   0.00025   0.00000  -0.00778
 146        4PY         0.00000   0.00000   0.00000  -0.00104   0.00000
 147        4PZ         0.00007  -0.00006   0.00009   0.00000   0.00260
 148        5D 0       -0.00002  -0.00001  -0.00002   0.00000   0.00017
 149        5D+1        0.00001   0.00000  -0.00002   0.00000   0.00020
 150        5D-1        0.00000   0.00000   0.00000   0.00012   0.00000
 151        5D+2        0.00002   0.00000   0.00002   0.00000  -0.00029
 152        5D-2        0.00000   0.00000   0.00000  -0.00025   0.00000
 153 9   Cl 1S         -0.21840   0.01426   0.17155   0.00000   0.17617
 154        2S         -0.00279   0.00018   0.00219   0.00000  -0.63421
 155        2PX         0.00001   0.00000  -0.00001   0.00000   0.00151
 156        2PY         0.00000   0.00000   0.00000   0.00008   0.00000
 157        2PZ        -0.00001   0.00000   0.00001   0.00000   0.00010
 158        3S          0.00100  -0.00006  -0.00076   0.00000  -0.02820
 159        3PX        -0.00003  -0.00001   0.00003   0.00000   0.00101
 160        3PY         0.00000   0.00000   0.00000  -0.00043   0.00000
 161        3PZ         0.00003   0.00001  -0.00007   0.00000   0.00050
 162        4S         -0.00073   0.00006   0.00062   0.00000   0.02541
 163        4PX         0.00016  -0.00001  -0.00025   0.00000  -0.00778
 164        4PY         0.00000   0.00000   0.00000  -0.00104   0.00000
 165        4PZ        -0.00007  -0.00006   0.00009   0.00000  -0.00260
 166        5D 0        0.00002  -0.00001  -0.00002   0.00000  -0.00017
 167        5D+1        0.00001   0.00000   0.00002   0.00000   0.00020
 168        5D-1        0.00000   0.00000   0.00000   0.00012   0.00000
 169        5D+2       -0.00002   0.00000   0.00002   0.00000   0.00029
 170        5D-2        0.00000   0.00000   0.00000   0.00025   0.00000
 171 10  Cl 1S          0.00000   0.01504  -0.17144   0.17617   0.00000
 172        2S          0.00000   0.00019  -0.00219  -0.63421   0.00000
 173        2PX        -0.00001   0.00000   0.00000   0.00000  -0.00008
 174        2PY         0.00000   0.00000  -0.00001  -0.00151   0.00000
 175        2PZ         0.00000   0.00000  -0.00001   0.00010   0.00000
 176        3S          0.00000  -0.00007   0.00076  -0.02820   0.00000
 177        3PX         0.00002   0.00000   0.00000   0.00000   0.00043
 178        3PY         0.00000   0.00001   0.00003  -0.00101   0.00000
 179        3PZ         0.00000   0.00001   0.00007   0.00050   0.00000
 180        4S          0.00000   0.00006  -0.00062   0.02541   0.00000
 181        4PX        -0.00006   0.00000   0.00000   0.00000   0.00104
 182        4PY         0.00000   0.00002  -0.00025   0.00778   0.00000
 183        4PZ         0.00000  -0.00006  -0.00009  -0.00260   0.00000
 184        5D 0        0.00000  -0.00001   0.00002  -0.00017   0.00000
 185        5D+1        0.00001   0.00000   0.00000   0.00000  -0.00012
 186        5D-1        0.00000   0.00000   0.00002  -0.00020   0.00000
 187        5D+2        0.00000   0.00000   0.00002  -0.00029   0.00000
 188        5D-2        0.00000   0.00000   0.00000   0.00000   0.00025
                          11        12        13        14        15
                        (B2)--O   (A1)--O   (E)--O    (E)--O    (A1)--O
     Eigenvalues --    -9.17753  -9.17750  -9.17746  -9.17746  -9.17745
   1 1   Tc 1S          0.00000   0.00051   0.00000   0.00000  -0.00056
   2        2S          0.00000  -0.00031   0.00000   0.00000  -0.00012
   3        3S          0.00001   0.03949   0.00000   0.00000  -0.01941
   4        4PX         0.00000   0.00000   0.00000  -0.00024   0.00000
   5        4PY         0.00000   0.00000   0.00024   0.00000   0.00000
   6        4PZ         0.00000   0.00001   0.00000   0.00000   0.00033
   7        5PX         0.00000   0.00000   0.00000  -0.00372   0.00000
   8        5PY         0.00000   0.00000   0.00372   0.00000   0.00000
   9        5PZ         0.00000  -0.00439   0.00000   0.00000   0.00691
  10        6PX         0.00000   0.00000   0.00000  -0.00087   0.00000
  11        6PY         0.00000   0.00000   0.00087   0.00000   0.00000
  12        6PZ         0.00000  -0.00534   0.00000   0.00000   0.00187
  13        7D 0        0.00000   0.00020   0.00000   0.00000   0.00001
  14        7D+1        0.00000   0.00000   0.00000   0.00008   0.00000
  15        7D-1        0.00000   0.00000  -0.00008   0.00000   0.00000
  16        7D+2       -0.00058   0.00000   0.00000   0.00000   0.00000
  17        7D-2        0.00000   0.00000   0.00000   0.00000   0.00000
  18        8D 0        0.00000  -0.00181   0.00000   0.00000  -0.00118
  19        8D+1        0.00000   0.00000   0.00000  -0.00241   0.00000
  20        8D-1        0.00000   0.00000   0.00241   0.00000   0.00000
  21        8D+2       -0.00197   0.00000   0.00000   0.00000   0.00000
  22        8D-2        0.00000   0.00000   0.00000   0.00000   0.00000
  23 2   Tc 1S          0.00000  -0.00061   0.00000   0.00000   0.00045
  24        2S          0.00000  -0.00009   0.00000   0.00000  -0.00032
  25        3S          0.00000  -0.02328   0.00000   0.00000   0.03734
  26        4PX         0.00000   0.00000   0.00000  -0.00100   0.00000
  27        4PY         0.00000   0.00000   0.00100   0.00000   0.00000
  28        4PZ         0.00000  -0.00033   0.00000   0.00000  -0.00004
  29        5PX         0.00000   0.00000   0.00000  -0.01651   0.00000
  30        5PY         0.00000   0.00000   0.01651   0.00000   0.00000
  31        5PZ         0.00000  -0.00730   0.00000   0.00000   0.00368
  32        6PX         0.00000   0.00000   0.00000  -0.00169   0.00000
  33        6PY         0.00000   0.00000   0.00169   0.00000   0.00000
  34        6PZ         0.00000  -0.00240   0.00000   0.00000   0.00512
  35        7D 0        0.00000  -0.00001   0.00000   0.00000   0.00020
  36        7D+1        0.00000   0.00000   0.00000  -0.00004   0.00000
  37        7D-1        0.00000   0.00000   0.00004   0.00000   0.00000
  38        7D+2        0.00061   0.00000   0.00000   0.00000   0.00000
  39        7D-2        0.00000   0.00000   0.00000   0.00000   0.00000
  40        8D 0        0.00000  -0.00099   0.00000   0.00000  -0.00191
  41        8D+1        0.00000   0.00000   0.00000   0.00208   0.00000
  42        8D-1        0.00000   0.00000  -0.00208   0.00000   0.00000
  43        8D+2        0.00057   0.00000   0.00000   0.00000   0.00000
  44        8D-2        0.00000   0.00000   0.00000   0.00000   0.00000
  45 3   Cl 1S          0.07526   0.00721  -0.17621   0.00000  -0.14266
  46        2S         -0.27083  -0.02595   0.63414   0.00000   0.51333
  47        2PX         0.00000   0.00000   0.00000  -0.00003   0.00000
  48        2PY         0.00059   0.00005  -0.00152   0.00000  -0.00127
  49        2PZ         0.00002  -0.00001   0.00015   0.00000   0.00013
  50        3S         -0.01181  -0.00113   0.02699   0.00000   0.02141
  51        3PX         0.00000   0.00000   0.00000   0.00018   0.00000
  52        3PY         0.00073   0.00009  -0.00089   0.00000  -0.00044
  53        3PZ        -0.00057   0.00003   0.00021   0.00000   0.00012
  54        4S          0.00691   0.00084  -0.02145   0.00000  -0.01585
  55        4PX         0.00000   0.00000   0.00000   0.00101   0.00000
  56        4PY        -0.00194  -0.00005   0.00615   0.00000   0.00254
  57        4PZ         0.00137  -0.00024  -0.00150   0.00000  -0.00102
  58        5D 0       -0.00001   0.00004   0.00019   0.00000  -0.00005
  59        5D+1        0.00000   0.00000   0.00000   0.00013   0.00000
  60        5D-1       -0.00003  -0.00001   0.00009   0.00000   0.00010
  61        5D+2       -0.00001   0.00002   0.00024   0.00000   0.00001
  62        5D-2        0.00000   0.00000   0.00000  -0.00016   0.00000
  63 4   Cl 1S         -0.07524   0.00724   0.00000  -0.17621  -0.14262
  64        2S          0.27079  -0.02606   0.00000   0.63414   0.51319
  65        2PX         0.00059  -0.00005   0.00000   0.00152   0.00127
  66        2PY         0.00000   0.00000   0.00003   0.00000   0.00000
  67        2PZ        -0.00002  -0.00001   0.00000   0.00015   0.00013
  68        3S          0.01181  -0.00113   0.00000   0.02699   0.02140
  69        3PX         0.00073  -0.00009   0.00000   0.00089   0.00044
  70        3PY         0.00000   0.00000  -0.00018   0.00000   0.00000
  71        3PZ         0.00057   0.00003   0.00000   0.00021   0.00012
  72        4S         -0.00691   0.00084   0.00000  -0.02145  -0.01585
  73        4PX        -0.00194   0.00005   0.00000  -0.00615  -0.00254
  74        4PY         0.00000   0.00000  -0.00101   0.00000   0.00000
  75        4PZ        -0.00137  -0.00024   0.00000  -0.00150  -0.00102
  76        5D 0        0.00001   0.00004   0.00000   0.00019  -0.00005
  77        5D+1       -0.00003   0.00001   0.00000  -0.00009  -0.00010
  78        5D-1        0.00000   0.00000  -0.00013   0.00000   0.00000
  79        5D+2       -0.00001  -0.00002   0.00000  -0.00024  -0.00001
  80        5D-2        0.00000   0.00000  -0.00016   0.00000   0.00000
  81 5   Cl 1S         -0.07524   0.00724   0.00000   0.17621  -0.14262
  82        2S          0.27079  -0.02606   0.00000  -0.63414   0.51319
  83        2PX        -0.00059   0.00005   0.00000   0.00152  -0.00127
  84        2PY         0.00000   0.00000   0.00003   0.00000   0.00000
  85        2PZ        -0.00002  -0.00001   0.00000  -0.00015   0.00013
  86        3S          0.01181  -0.00113   0.00000  -0.02699   0.02140
  87        3PX        -0.00073   0.00009   0.00000   0.00089  -0.00044
  88        3PY         0.00000   0.00000  -0.00018   0.00000   0.00000
  89        3PZ         0.00057   0.00003   0.00000  -0.00021   0.00012
  90        4S         -0.00691   0.00084   0.00000   0.02145  -0.01585
  91        4PX         0.00194  -0.00005   0.00000  -0.00615   0.00254
  92        4PY         0.00000   0.00000  -0.00101   0.00000   0.00000
  93        4PZ        -0.00137  -0.00024   0.00000   0.00150  -0.00102
  94        5D 0        0.00001   0.00004   0.00000  -0.00019  -0.00005
  95        5D+1        0.00003  -0.00001   0.00000  -0.00009   0.00010
  96        5D-1        0.00000   0.00000  -0.00013   0.00000   0.00000
  97        5D+2       -0.00001  -0.00002   0.00000   0.00024  -0.00001
  98        5D-2        0.00000   0.00000   0.00016   0.00000   0.00000
  99 6   Cl 1S          0.07526   0.00721   0.17621   0.00000  -0.14266
 100        2S         -0.27083  -0.02595  -0.63414   0.00000   0.51333
 101        2PX         0.00000   0.00000   0.00000  -0.00003   0.00000
 102        2PY        -0.00059  -0.00005  -0.00152   0.00000   0.00127
 103        2PZ         0.00002  -0.00001  -0.00015   0.00000   0.00013
 104        3S         -0.01181  -0.00113  -0.02699   0.00000   0.02141
 105        3PX         0.00000   0.00000   0.00000   0.00018   0.00000
 106        3PY        -0.00073  -0.00009  -0.00089   0.00000   0.00044
 107        3PZ        -0.00057   0.00003  -0.00021   0.00000   0.00012
 108        4S          0.00691   0.00084   0.02145   0.00000  -0.01585
 109        4PX         0.00000   0.00000   0.00000   0.00101   0.00000
 110        4PY         0.00194   0.00005   0.00615   0.00000  -0.00254
 111        4PZ         0.00137  -0.00024   0.00150   0.00000  -0.00102
 112        5D 0       -0.00001   0.00004  -0.00019   0.00000  -0.00005
 113        5D+1        0.00000   0.00000   0.00000   0.00013   0.00000
 114        5D-1        0.00003   0.00001   0.00009   0.00000  -0.00010
 115        5D+2       -0.00001   0.00002  -0.00024   0.00000   0.00001
 116        5D-2        0.00000   0.00000   0.00000   0.00016   0.00000
 117 7   Cl 1S         -0.12139  -0.14262  -0.09872   0.00000  -0.00725
 118        2S          0.43678   0.51320   0.35516   0.00000   0.02607
 119        2PX         0.00000   0.00000   0.00000   0.00001   0.00000
 120        2PY        -0.00098  -0.00127  -0.00086   0.00000  -0.00008
 121        2PZ        -0.00004  -0.00013  -0.00011   0.00000   0.00000
 122        3S          0.01842   0.02141   0.01438   0.00000   0.00104
 123        3PX         0.00000   0.00000   0.00000  -0.00004   0.00000
 124        3PY        -0.00103  -0.00045  -0.00043   0.00000   0.00004
 125        3PZ        -0.00051  -0.00011   0.00006   0.00000  -0.00004
 126        4S         -0.01063  -0.01586  -0.00961   0.00000  -0.00077
 127        4PX         0.00000   0.00000   0.00000   0.00055   0.00000
 128        4PY         0.00316   0.00253   0.00246   0.00000   0.00021
 129        4PZ         0.00143   0.00099   0.00016   0.00000   0.00035
 130        5D 0        0.00007  -0.00006   0.00012   0.00000   0.00004
 131        5D+1        0.00000   0.00000   0.00000  -0.00007   0.00000
 132        5D-1       -0.00006  -0.00010   0.00002   0.00000   0.00000
 133        5D+2        0.00004   0.00001   0.00010   0.00000   0.00002
 134        5D-2        0.00000   0.00000   0.00000  -0.00004   0.00000
 135 8   Cl 1S          0.12135  -0.14266   0.00000  -0.09872  -0.00721
 136        2S         -0.43662   0.51331   0.00000   0.35516   0.02595
 137        2PX        -0.00098   0.00127   0.00000   0.00086   0.00008
 138        2PY         0.00000   0.00000  -0.00001   0.00000   0.00000
 139        2PZ         0.00004  -0.00013   0.00000  -0.00011   0.00000
 140        3S         -0.01841   0.02141   0.00000   0.01438   0.00104
 141        3PX        -0.00103   0.00045   0.00000   0.00043  -0.00004
 142        3PY         0.00000   0.00000   0.00004   0.00000   0.00000
 143        3PZ         0.00051  -0.00011   0.00000   0.00006  -0.00004
 144        4S          0.01063  -0.01586   0.00000  -0.00961  -0.00077
 145        4PX         0.00316  -0.00253   0.00000  -0.00246  -0.00020
 146        4PY         0.00000   0.00000  -0.00055   0.00000   0.00000
 147        4PZ        -0.00143   0.00099   0.00000   0.00016   0.00035
 148        5D 0       -0.00007  -0.00006   0.00000   0.00012   0.00004
 149        5D+1       -0.00006   0.00010   0.00000  -0.00002   0.00000
 150        5D-1        0.00000   0.00000   0.00007   0.00000   0.00000
 151        5D+2        0.00004  -0.00001   0.00000  -0.00010  -0.00002
 152        5D-2        0.00000   0.00000  -0.00004   0.00000   0.00000
 153 9   Cl 1S          0.12135  -0.14266   0.00000   0.09872  -0.00721
 154        2S         -0.43662   0.51331   0.00000  -0.35516   0.02595
 155        2PX         0.00098  -0.00127   0.00000   0.00086  -0.00008
 156        2PY         0.00000   0.00000  -0.00001   0.00000   0.00000
 157        2PZ         0.00004  -0.00013   0.00000   0.00011   0.00000
 158        3S         -0.01841   0.02141   0.00000  -0.01438   0.00104
 159        3PX         0.00103  -0.00045   0.00000   0.00043   0.00004
 160        3PY         0.00000   0.00000   0.00004   0.00000   0.00000
 161        3PZ         0.00051  -0.00011   0.00000  -0.00006  -0.00004
 162        4S          0.01063  -0.01586   0.00000   0.00961  -0.00077
 163        4PX        -0.00316   0.00253   0.00000  -0.00246   0.00020
 164        4PY         0.00000   0.00000  -0.00055   0.00000   0.00000
 165        4PZ        -0.00143   0.00099   0.00000  -0.00016   0.00035
 166        5D 0       -0.00007  -0.00006   0.00000  -0.00012   0.00004
 167        5D+1        0.00006  -0.00010   0.00000  -0.00002   0.00000
 168        5D-1        0.00000   0.00000   0.00007   0.00000   0.00000
 169        5D+2        0.00004  -0.00001   0.00000   0.00010  -0.00002
 170        5D-2        0.00000   0.00000   0.00004   0.00000   0.00000
 171 10  Cl 1S         -0.12139  -0.14262   0.09872   0.00000  -0.00725
 172        2S          0.43678   0.51320  -0.35516   0.00000   0.02607
 173        2PX         0.00000   0.00000   0.00000   0.00001   0.00000
 174        2PY         0.00098   0.00127  -0.00086   0.00000   0.00008
 175        2PZ        -0.00004  -0.00013   0.00011   0.00000   0.00000
 176        3S          0.01842   0.02141  -0.01438   0.00000   0.00104
 177        3PX         0.00000   0.00000   0.00000  -0.00004   0.00000
 178        3PY         0.00103   0.00045  -0.00043   0.00000  -0.00004
 179        3PZ        -0.00051  -0.00011  -0.00006   0.00000  -0.00004
 180        4S         -0.01063  -0.01586   0.00961   0.00000  -0.00077
 181        4PX         0.00000   0.00000   0.00000   0.00055   0.00000
 182        4PY        -0.00316  -0.00253   0.00246   0.00000  -0.00021
 183        4PZ         0.00143   0.00099  -0.00016   0.00000   0.00035
 184        5D 0        0.00007  -0.00006  -0.00012   0.00000   0.00004
 185        5D+1        0.00000   0.00000   0.00000  -0.00007   0.00000
 186        5D-1        0.00006   0.00010   0.00002   0.00000   0.00000
 187        5D+2        0.00004   0.00001  -0.00010   0.00000   0.00002
 188        5D-2        0.00000   0.00000   0.00000   0.00004   0.00000
                          16        17        18        19        20
                        (B2)--O   (B2)--O   (A1)--O   (E)--O    (E)--O
     Eigenvalues --    -9.17742  -6.93740  -6.93736  -6.93736  -6.93736
   1 1   Tc 1S          0.00000   0.00000  -0.00112   0.00000   0.00000
   2        2S          0.00000   0.00000   0.00096   0.00000   0.00000
   3        3S          0.00000   0.00000  -0.00103   0.00000   0.00000
   4        4PX         0.00000   0.00000   0.00000   0.00000  -0.00085
   5        4PY         0.00000   0.00000   0.00000  -0.00085   0.00000
   6        4PZ         0.00000   0.00000   0.00062   0.00000   0.00000
   7        5PX         0.00000   0.00000   0.00000   0.00000  -0.00334
   8        5PY         0.00000   0.00000   0.00000  -0.00334   0.00000
   9        5PZ         0.00000   0.00000   0.00105   0.00000   0.00000
  10        6PX         0.00000   0.00000   0.00000   0.00000   0.00406
  11        6PY         0.00000   0.00000   0.00000   0.00406   0.00000
  12        6PZ         0.00000   0.00000  -0.00065   0.00000   0.00000
  13        7D 0        0.00000   0.00000  -0.00015   0.00000   0.00000
  14        7D+1        0.00000   0.00000   0.00000   0.00000   0.00016
  15        7D-1        0.00000   0.00000   0.00000   0.00016   0.00000
  16        7D+2       -0.00021   0.00120   0.00000   0.00000   0.00000
  17        7D-2        0.00000   0.00000   0.00000   0.00000   0.00000
  18        8D 0        0.00000   0.00000   0.00237   0.00000   0.00000
  19        8D+1        0.00000   0.00000   0.00000   0.00000  -0.00027
  20        8D-1        0.00000   0.00000   0.00000  -0.00027   0.00000
  21        8D+2        0.00267  -0.01239   0.00000   0.00000   0.00000
  22        8D-2        0.00000   0.00000   0.00000   0.00000   0.00000
  23 2   Tc 1S          0.00000   0.00000  -0.00029   0.00000   0.00000
  24        2S          0.00000   0.00000  -0.00066   0.00000   0.00000
  25        3S          0.00001   0.00000  -0.00164   0.00000   0.00000
  26        4PX         0.00000   0.00000   0.00000   0.00000   0.00024
  27        4PY         0.00000   0.00000   0.00000   0.00024   0.00000
  28        4PZ         0.00000   0.00000  -0.00037   0.00000   0.00000
  29        5PX         0.00000   0.00000   0.00000   0.00000  -0.00064
  30        5PY         0.00000   0.00000   0.00000  -0.00064   0.00000
  31        5PZ         0.00000   0.00000   0.00355   0.00000   0.00000
  32        6PX         0.00000   0.00000   0.00000   0.00000  -0.00190
  33        6PY         0.00000   0.00000   0.00000  -0.00190   0.00000
  34        6PZ         0.00000   0.00000  -0.00105   0.00000   0.00000
  35        7D 0        0.00000   0.00000  -0.00030   0.00000   0.00000
  36        7D+1        0.00000   0.00000   0.00000   0.00000   0.00015
  37        7D-1        0.00000   0.00000   0.00000   0.00015   0.00000
  38        7D+2        0.00007  -0.00126   0.00000   0.00000   0.00000
  39        7D-2        0.00000   0.00000   0.00000   0.00000   0.00000
  40        8D 0        0.00000   0.00000   0.00202   0.00000   0.00000
  41        8D+1        0.00000   0.00000   0.00000   0.00000  -0.00063
  42        8D-1        0.00000   0.00000   0.00000  -0.00063   0.00000
  43        8D+2        0.00329   0.01167   0.00000   0.00000   0.00000
  44        8D-2        0.00000   0.00000   0.00000   0.00000   0.00000
  45 3   Cl 1S          0.12137   0.00023  -0.00002   0.00006   0.00000
  46        2S         -0.43661  -0.00082   0.00001  -0.00018   0.00000
  47        2PX         0.00000   0.00000   0.00000   0.00000  -0.00002
  48        2PY         0.00100  -0.24331   0.01208  -0.05935   0.00000
  49        2PZ        -0.00013   0.06032  -0.00284   0.01566   0.00000
  50        3S         -0.01762   0.00050  -0.00023   0.00022   0.00000
  51        3PX         0.00000   0.00000   0.00000   0.00000  -0.00005
  52        3PY         0.00086  -0.00821   0.00039  -0.00186   0.00000
  53        3PZ         0.00001   0.00212  -0.00008   0.00066   0.00000
  54        4S          0.00998   0.00393   0.00132  -0.00018   0.00000
  55        4PX         0.00000   0.00000   0.00000   0.00000   0.00024
  56        4PY        -0.00319   0.00041  -0.00087   0.00062   0.00000
  57        4PZ         0.00045   0.00025   0.00013  -0.00049   0.00000
  58        5D 0       -0.00014  -0.00008  -0.00004  -0.00003   0.00000
  59        5D+1        0.00000   0.00000   0.00000   0.00000   0.00003
  60        5D-1       -0.00009  -0.00029  -0.00001  -0.00005   0.00000
  61        5D+2       -0.00007  -0.00042  -0.00004  -0.00001   0.00000
  62        5D-2        0.00000   0.00000   0.00000   0.00000  -0.00004
  63 4   Cl 1S         -0.12142  -0.00023  -0.00002   0.00000  -0.00006
  64        2S          0.43679   0.00082   0.00001   0.00000   0.00018
  65        2PX         0.00100  -0.24327  -0.01218   0.00000  -0.05935
  66        2PY         0.00000   0.00000   0.00000  -0.00002   0.00000
  67        2PZ         0.00013  -0.06032  -0.00287   0.00000  -0.01566
  68        3S          0.01763  -0.00050  -0.00023   0.00000  -0.00022
  69        3PX         0.00086  -0.00821  -0.00039   0.00000  -0.00186
  70        3PY         0.00000   0.00000   0.00000  -0.00005   0.00000
  71        3PZ        -0.00001  -0.00212  -0.00008   0.00000  -0.00066
  72        4S         -0.00998  -0.00393   0.00132   0.00000   0.00018
  73        4PX        -0.00319   0.00041   0.00087   0.00000   0.00062
  74        4PY         0.00000   0.00000   0.00000   0.00024   0.00000
  75        4PZ        -0.00045  -0.00025   0.00013   0.00000   0.00049
  76        5D 0        0.00014   0.00008  -0.00004   0.00000   0.00003
  77        5D+1       -0.00009  -0.00029   0.00001   0.00000  -0.00005
  78        5D-1        0.00000   0.00000   0.00000   0.00003   0.00000
  79        5D+2       -0.00007  -0.00042   0.00004   0.00000  -0.00001
  80        5D-2        0.00000   0.00000   0.00000   0.00004   0.00000
  81 5   Cl 1S         -0.12142  -0.00023  -0.00002   0.00000   0.00006
  82        2S          0.43679   0.00082   0.00001   0.00000  -0.00018
  83        2PX        -0.00100   0.24327   0.01218   0.00000  -0.05935
  84        2PY         0.00000   0.00000   0.00000  -0.00002   0.00000
  85        2PZ         0.00013  -0.06032  -0.00287   0.00000   0.01566
  86        3S          0.01763  -0.00050  -0.00023   0.00000   0.00022
  87        3PX        -0.00086   0.00821   0.00039   0.00000  -0.00186
  88        3PY         0.00000   0.00000   0.00000  -0.00005   0.00000
  89        3PZ        -0.00001  -0.00212  -0.00008   0.00000   0.00066
  90        4S         -0.00998  -0.00393   0.00132   0.00000  -0.00018
  91        4PX         0.00319  -0.00041  -0.00087   0.00000   0.00062
  92        4PY         0.00000   0.00000   0.00000   0.00024   0.00000
  93        4PZ        -0.00045  -0.00025   0.00013   0.00000  -0.00049
  94        5D 0        0.00014   0.00008  -0.00004   0.00000  -0.00003
  95        5D+1        0.00009   0.00029  -0.00001   0.00000  -0.00005
  96        5D-1        0.00000   0.00000   0.00000   0.00003   0.00000
  97        5D+2       -0.00007  -0.00042   0.00004   0.00000   0.00001
  98        5D-2        0.00000   0.00000   0.00000  -0.00004   0.00000
  99 6   Cl 1S          0.12137   0.00023  -0.00002  -0.00006   0.00000
 100        2S         -0.43661  -0.00082   0.00001   0.00018   0.00000
 101        2PX         0.00000   0.00000   0.00000   0.00000  -0.00002
 102        2PY        -0.00100   0.24331  -0.01208  -0.05935   0.00000
 103        2PZ        -0.00013   0.06032  -0.00284  -0.01566   0.00000
 104        3S         -0.01762   0.00050  -0.00023  -0.00022   0.00000
 105        3PX         0.00000   0.00000   0.00000   0.00000  -0.00005
 106        3PY        -0.00086   0.00821  -0.00039  -0.00186   0.00000
 107        3PZ         0.00001   0.00212  -0.00008  -0.00066   0.00000
 108        4S          0.00998   0.00393   0.00132   0.00018   0.00000
 109        4PX         0.00000   0.00000   0.00000   0.00000   0.00024
 110        4PY         0.00319  -0.00041   0.00087   0.00062   0.00000
 111        4PZ         0.00045   0.00025   0.00013   0.00049   0.00000
 112        5D 0       -0.00014  -0.00008  -0.00004   0.00003   0.00000
 113        5D+1        0.00000   0.00000   0.00000   0.00000   0.00003
 114        5D-1        0.00009   0.00029   0.00001  -0.00005   0.00000
 115        5D+2       -0.00007  -0.00042  -0.00004   0.00001   0.00000
 116        5D-2        0.00000   0.00000   0.00000   0.00000   0.00004
 117 7   Cl 1S          0.07529  -0.00038   0.00040  -0.00059   0.00000
 118        2S         -0.27079   0.00134  -0.00153   0.00203   0.00000
 119        2PX         0.00000   0.00000   0.00000   0.00000   0.00072
 120        2PY         0.00064   0.41463  -0.48100   0.67749   0.00000
 121        2PZ         0.00012   0.10211  -0.11721   0.16674   0.00000
 122        3S         -0.01054  -0.00084  -0.00001  -0.00110   0.00000
 123        3PX         0.00000   0.00000   0.00000   0.00000   0.00034
 124        3PY         0.00045   0.01343  -0.01467   0.02086   0.00000
 125        3PZ        -0.00026   0.00337  -0.00357   0.00533   0.00000
 126        4S          0.00586  -0.00370   0.00134   0.00207   0.00000
 127        4PX         0.00000   0.00000   0.00000   0.00000  -0.00121
 128        4PY        -0.00199  -0.00203   0.00385  -0.00819   0.00000
 129        4PZ         0.00021   0.00003   0.00077  -0.00248   0.00000
 130        5D 0       -0.00012   0.00006  -0.00020   0.00007   0.00000
 131        5D+1        0.00000   0.00000   0.00000   0.00000  -0.00001
 132        5D-1        0.00007  -0.00035   0.00016   0.00000   0.00000
 133        5D+2       -0.00006   0.00048  -0.00017   0.00011   0.00000
 134        5D-2        0.00000   0.00000   0.00000   0.00000   0.00021
 135 8   Cl 1S         -0.07530   0.00038   0.00040   0.00000   0.00059
 136        2S          0.27083  -0.00134  -0.00153   0.00000  -0.00203
 137        2PX         0.00064   0.41451   0.48109   0.00000   0.67749
 138        2PY         0.00000   0.00000   0.00000   0.00072   0.00000
 139        2PZ        -0.00012  -0.10209  -0.11723   0.00000  -0.16674
 140        3S          0.01054   0.00084  -0.00001   0.00000   0.00110
 141        3PX         0.00045   0.01343   0.01467   0.00000   0.02086
 142        3PY         0.00000   0.00000   0.00000   0.00034   0.00000
 143        3PZ         0.00026  -0.00337  -0.00357   0.00000  -0.00533
 144        4S         -0.00586   0.00370   0.00134   0.00000  -0.00207
 145        4PX        -0.00199  -0.00203  -0.00385   0.00000  -0.00819
 146        4PY         0.00000   0.00000   0.00000  -0.00121   0.00000
[...]
  67        2PZ         1.99134
  68        3S          1.41023
  69        3PX         1.08953
  70        3PY         1.26286
  71        3PZ         1.23256
  72        4S          0.52198
  73        4PX         0.50123
  74        4PY         0.63084
  75        4PZ         0.61933
  76        5D 0        0.00151
  77        5D+1        0.00241
  78        5D-1        0.00031
  79        5D+2        0.00339
  80        5D-2        0.00261
  81 5   Cl 1S          1.99964
  82        2S          1.99726
  83        2PX         1.98977
  84        2PY         1.99174
  85        2PZ         1.99134
  86        3S          1.41023
  87        3PX         1.08953
  88        3PY         1.26286
  89        3PZ         1.23256
  90        4S          0.52198
  91        4PX         0.50123
  92        4PY         0.63084
  93        4PZ         0.61933
  94        5D 0        0.00151
  95        5D+1        0.00241
  96        5D-1        0.00031
  97        5D+2        0.00339
  98        5D-2        0.00261
  99 6   Cl 1S          1.99964
 100        2S          1.99726
 101        2PX         1.99174
 102        2PY         1.98977
 103        2PZ         1.99134
 104        3S          1.41023
 105        3PX         1.26286
 106        3PY         1.08953
 107        3PZ         1.23256
 108        4S          0.52198
 109        4PX         0.63084
 110        4PY         0.50123
 111        4PZ         0.61933
 112        5D 0        0.00151
 113        5D+1        0.00031
 114        5D-1        0.00241
 115        5D+2        0.00339
 116        5D-2        0.00261
 117 7   Cl 1S          1.99964
 118        2S          1.99726
 119        2PX         1.99174
 120        2PY         1.98977
 121        2PZ         1.99134
 122        3S          1.41023
 123        3PX         1.26285
 124        3PY         1.08953
 125        3PZ         1.23257
 126        4S          0.52198
 127        4PX         0.63084
 128        4PY         0.50123
 129        4PZ         0.61934
 130        5D 0        0.00151
 131        5D+1        0.00031
 132        5D-1        0.00241
 133        5D+2        0.00339
 134        5D-2        0.00261
 135 8   Cl 1S          1.99964
 136        2S          1.99726
 137        2PX         1.98977
 138        2PY         1.99174
 139        2PZ         1.99134
 140        3S          1.41023
 141        3PX         1.08953
 142        3PY         1.26285
 143        3PZ         1.23257
 144        4S          0.52198
 145        4PX         0.50123
 146        4PY         0.63084
 147        4PZ         0.61934
 148        5D 0        0.00151
 149        5D+1        0.00241
 150        5D-1        0.00031
 151        5D+2        0.00339
 152        5D-2        0.00261
 153 9   Cl 1S          1.99964
 154        2S          1.99726
 155        2PX         1.98977
 156        2PY         1.99174
 157        2PZ         1.99134
 158        3S          1.41023
 159        3PX         1.08953
 160        3PY         1.26285
 161        3PZ         1.23257
 162        4S          0.52198
 163        4PX         0.50123
 164        4PY         0.63084
 165        4PZ         0.61934
 166        5D 0        0.00151
 167        5D+1        0.00241
 168        5D-1        0.00031
 169        5D+2        0.00339
 170        5D-2        0.00261
 171 10  Cl 1S          1.99964
 172        2S          1.99726
 173        2PX         1.99174
 174        2PY         1.98977
 175        2PZ         1.99134
 176        3S          1.41023
 177        3PX         1.26285
 178        3PY         1.08953
 179        3PZ         1.23257
 180        4S          0.52198
 181        4PX         0.63084
 182        4PY         0.50123
 183        4PZ         0.61934
 184        5D 0        0.00151
 185        5D+1        0.00031
 186        5D-1        0.00241
 187        5D+2        0.00339
 188        5D-2        0.00261
          Condensed to atoms (all electrons):
              1          2          3          4          5          6
     1  Tc  13.824879   0.142983   0.002686   0.002686   0.002686   0.002686
     2  Tc   0.142983  13.824837   0.256780   0.256780   0.256780   0.256780
     3  Cl   0.002686   0.256780  17.062474  -0.035701  -0.035701  -0.002067
     4  Cl   0.002686   0.256780  -0.035701  17.062474  -0.002067  -0.035701
     5  Cl   0.002686   0.256780  -0.035701  -0.002067  17.062474  -0.035701
     6  Cl   0.002686   0.256780  -0.002067  -0.035701  -0.035701  17.062474
     7  Cl   0.256785   0.002680  -0.001063   0.000570   0.000570   0.000023
     8  Cl   0.256785   0.002680   0.000570  -0.001063   0.000023   0.000570
     9  Cl   0.256785   0.002680   0.000570   0.000023  -0.001063   0.000570
    10  Cl   0.256785   0.002680   0.000023   0.000570   0.000570  -0.001063
              7          8          9         10
     1  Tc   0.256785   0.256785   0.256785   0.256785
     2  Tc   0.002680   0.002680   0.002680   0.002680
     3  Cl  -0.001063   0.000570   0.000570   0.000023
     4  Cl   0.000570  -0.001063   0.000023   0.000570
     5  Cl   0.000570   0.000023  -0.001063   0.000570
     6  Cl   0.000023   0.000570   0.000570  -0.001063
     7  Cl  17.062467  -0.035696  -0.035696  -0.002067
     8  Cl  -0.035696  17.062467  -0.002067  -0.035696
     9  Cl  -0.035696  -0.002067  17.062467  -0.035696
    10  Cl  -0.002067  -0.035696  -0.035696  17.062467
 Mulliken atomic charges:
              1
     1  Tc  -0.005747
     2  Tc  -0.005662
     3  Cl  -0.248573
     4  Cl  -0.248573
     5  Cl  -0.248573
     6  Cl  -0.248573
     7  Cl  -0.248574
     8  Cl  -0.248574
     9  Cl  -0.248574
    10  Cl  -0.248574
 Sum of Mulliken atomic charges =  -2.00000
 Mulliken charges with hydrogens summed into heavy atoms:
              1
     1  Tc  -0.005747
     2  Tc  -0.005662
     3  Cl  -0.248573
     4  Cl  -0.248573
     5  Cl  -0.248573
     6  Cl  -0.248573
     7  Cl  -0.248574
     8  Cl  -0.248574
     9  Cl  -0.248574
    10  Cl  -0.248574
 Sum of Mulliken charges with hydrogens summed into heavy atoms =  -2.00000
 Electronic spatial extent (au):  <R**2>=           4512.8421
 Charge=             -2.0000 electrons
 Dipole moment (field-independent basis, Debye):
    X=              0.0000    Y=              0.0000    Z=              0.0002  Tot=              0.0002
 Quadrupole moment (field-independent basis, Debye-Ang):
   XX=           -187.7561   YY=           -187.7561   ZZ=           -188.5529
   XY=              0.0000   XZ=              0.0000   YZ=              0.0000
 Traceless Quadrupole moment (field-independent basis, Debye-Ang):
   XX=              0.2656   YY=              0.2656   ZZ=             -0.5312
   XY=              0.0000   XZ=              0.0000   YZ=              0.0000
 Octapole moment (field-independent basis, Debye-Ang**2):
  XXX=              0.0000  YYY=              0.0000  ZZZ=              0.0039  XYY=              0.0000
  XXY=              0.0000  XXZ=             -0.0002  XZZ=              0.0000  YZZ=              0.0000
  YYZ=             -0.0002  XYZ=              0.0000
 Hexadecapole moment (field-independent basis, Debye-Ang**3):
 XXXX=          -2075.6679 YYYY=          -2075.6679 ZZZZ=          -2525.0112 XXXY=              0.0000
 XXXZ=              0.0000 YYYX=              0.0000 YYYZ=              0.0000 ZZZX=              0.0000
 ZZZY=              0.0000 XXYY=           -650.4746 XXZZ=           -827.8753 YYZZ=           -827.8753
 XXYZ=              0.0000 YYXZ=              0.0000 ZZXY=              0.0000
 N-N= 1.863907650098D+03 E-N=-1.285999134783D+04  KE= 3.729239719410D+03
 Symmetry A1   KE= 1.675593499353D+03
 Symmetry A2   KE= 1.868608715883D+02
 Symmetry B1   KE= 9.333926742344D+02
 Symmetry B2   KE= 9.333926742344D+02
 Orbital energies and kinetic energies (alpha):
                                 1                 2
   1         (E)--O         -101.252671        137.057925
   2         (E)--O         -101.252671        137.057925
   3         (B2)--O        -101.252663        137.059286
   4         (A1)--O        -101.252651        137.060746
   5         (A1)--O        -101.252648        137.061124
   6         (E)--O         -101.252644        137.061822
   7         (E)--O         -101.252644        137.061822
   8         (B2)--O        -101.252632        137.063472
   9         (E)--O           -9.183755         21.700118
  10         (E)--O           -9.183755         21.700118
  11         (B2)--O          -9.183736         21.703115
  12         (A1)--O          -9.183704         21.706829
  13         (A1)--O          -9.183696         21.707957
  14         (E)--O           -9.183681         21.709819
  15         (E)--O           -9.183681         21.709819
  16         (B2)--O          -9.183648         21.714162
  17         (B2)--O          -6.943981         20.527249
  18         (E)--O           -6.943932         20.535940
  19         (E)--O           -6.943932         20.535940
  20         (A1)--O          -6.943924         20.538292
  21         (E)--O           -6.943923         20.537431
  22         (E)--O           -6.943923         20.537431
  23         (A1)--O          -6.943918         20.539459
  24         (B2)--O          -6.943907         20.539397
  25         (B2)--O          -6.938879         20.542281
  26         (A1)--O          -6.938873         20.543425
  27         (E)--O           -6.938867         20.544446
  28         (E)--O           -6.938867         20.544446
  29         (A1)--O          -6.938848         20.548781
  30         (B2)--O          -6.938847         20.548944
  31         (E)--O           -6.938833         20.551142
  32         (E)--O           -6.938833         20.551142
  33         (A2)--O          -6.938437         20.543474
  34         (E)--O           -6.938427         20.546218
  35         (E)--O           -6.938427         20.546218
  36         (A2)--O          -6.938416         20.546948
  37         (E)--O           -6.938412         20.548458
  38         (E)--O           -6.938412         20.548458
  39         (B1)--O          -6.938401         20.551366
  40         (B1)--O          -6.938385         20.553557
  41         (A1)--O          -2.561798          1.281812
  42         (A1)--O          -2.543626          1.341486
  43         (A1)--O          -1.546429          1.895526
  44         (E)--O           -1.502259          1.996231
  45         (E)--O           -1.502259          1.996231
  46         (E)--O           -1.488840          2.043857
  47         (E)--O           -1.488840          2.043857
  48         (A1)--O          -1.456760          2.156525
  49         (A1)--O          -0.549468          2.916985
  50         (A1)--O          -0.541619          3.018802
  51         (E)--O           -0.532425          3.107327
  52         (E)--O           -0.532425          3.107327
  53         (B2)--O          -0.531709          3.128585
  54         (E)--O           -0.526156          3.179837
  55         (E)--O           -0.526156          3.179837
  56         (B2)--O          -0.524688          3.211496
  57         (A1)--O          -0.161899          2.059072
  58         (B2)--O          -0.155605          2.150166
  59         (E)--O           -0.149979          1.911431
  60         (E)--O           -0.149979          1.911431
  61         (B2)--O          -0.136119          2.254781
  62         (B1)--O          -0.135896          1.794487
  63         (A1)--O          -0.135047          2.094516
  64         (A1)--O          -0.122662          1.890939
  65         (B1)--O          -0.113383          1.941022
  66         (E)--O           -0.104988          2.182110
  67         (E)--O           -0.104988          2.182110
  68         (E)--O           -0.096205          2.071319
  69         (E)--O           -0.096205          2.071319
  70         (A1)--O          -0.081592          2.051705
  71         (A1)--O          -0.062049          2.148877
  72         (B2)--O          -0.061151          2.243809
  73         (E)--O           -0.053758          2.270087
  74         (E)--O           -0.053758          2.270087
  75         (E)--O           -0.044031          2.382733
  76         (E)--O           -0.044031          2.382733
  77         (E)--O           -0.040243          2.409315
  78         (E)--O           -0.040243          2.409315
  79         (E)--O           -0.026731          2.348771
  80         (E)--O           -0.026731          2.348771
  81         (A2)--O          -0.025891          2.521621
  82         (B2)--O          -0.025709          2.547147
  83         (A2)--O          -0.020032          2.589379
  84         (B1)--O           0.005434          2.388582
  85         (B1)--V           0.063994          2.498841
  86         (E)--V            0.125255          2.755161
  87         (E)--V            0.125255          2.755161
  88         (A1)--V           0.137559          2.493400
  89         (B2)--V           0.145266          2.816312
  90         (B2)--V           0.163948          2.905784
  91         (A1)--V           0.215706          0.264378
  92         (A1)--V           0.231279          0.800968
  93         (E)--V            0.255774          0.342735
  94         (E)--V            0.255774          0.342735
  95         (E)--V            0.257449          0.423158
  96         (E)--V            0.257449          0.423158
  97         (A1)--V           0.259256          1.173747
  98         (A1)--V           0.335746          0.842993
  99         (A1)--V           0.366340          1.527129
 100         (E)--V            0.435901          1.523399
 101         (E)--V            0.435901          1.523399
 102         (A1)--V           0.462084          0.829117
 103         (A1)--V           0.519654          2.090423
 104         (E)--V            0.541784          1.401561
 105         (E)--V            0.541784          1.401561
 106         (B2)--V           0.591098          2.413046
 107         (B1)--V           0.592762          1.732002
 108         (B2)--V           0.593485          2.145850
 109         (A1)--V           0.622792          2.082545
 110         (B1)--V           0.631701          1.697217
 111         (E)--V            0.636299          1.990981
 112         (E)--V            0.636299          1.990981
 113         (B1)--V           0.653389          2.739723
 114         (E)--V            0.688228          2.893397
 115         (E)--V            0.688228          2.893397
 116         (B2)--V           0.690677          2.412628
 117         (E)--V            0.697397          1.551582
 118         (E)--V            0.697397          1.551582
 119         (B1)--V           0.709165          2.874318
 120         (E)--V            0.730229          2.986186
 121         (E)--V            0.730229          2.986186
 122         (A1)--V           0.732188          2.794277
 123         (E)--V            0.746951          2.599639
 124         (E)--V            0.746951          2.599639
 125         (A1)--V           0.774890          3.039911
 126         (E)--V            0.790810          2.793122
 127         (E)--V            0.790810          2.793122
 128         (B2)--V           0.796746          2.512105
 129         (A2)--V           0.803695          2.748292
 130         (E)--V            0.814182          2.750104
 131         (E)--V            0.814182          2.750104
 132         (B2)--V           0.819660          2.608743
 133         (A1)--V           0.826000          2.752621
 134         (E)--V            0.833845          2.829760
 135         (E)--V            0.833845          2.829760
 136         (A2)--V           0.861986          2.810063
 137         (A1)--V           0.862438          2.794617
 138         (E)--V            0.877955          2.744771
 139         (E)--V            0.877955          2.744771
 140         (B2)--V           0.897083          2.763197
 141         (B2)--V           0.904462          2.941931
 142         (A1)--V           0.930408          2.604644
 143         (A1)--V           0.953288          2.753633
 144         (E)--V            1.044348          2.960288
 145         (E)--V            1.044348          2.960288
 146         (B2)--V           1.131205          2.638264
 147         (E)--V            1.136249          2.651584
 148         (E)--V            1.136249          2.651584
 149         (A2)--V           1.136625          2.631323
 150         (B2)--V           1.138224          2.646744
 151         (B1)--V           1.140430          2.625614
 152         (A2)--V           1.141029          2.625988
 153         (E)--V            1.142428          2.640554
 154         (E)--V            1.142428          2.640554
 155         (B1)--V           1.143657          2.630172
 156         (E)--V            1.145299          2.643099
 157         (E)--V            1.145299          2.643099
 158         (A1)--V           1.155985          2.650781
 159         (A2)--V           1.166755          2.721024
 160         (E)--V            1.167144          2.711063
 161         (E)--V            1.167144          2.711063
 162         (A1)--V           1.167501          2.707082
 163         (B2)--V           1.167650          2.806125
 164         (E)--V            1.173887          2.754393
 165         (E)--V            1.173887          2.754393
 166         (A2)--V           1.177342          2.786847
 167         (E)--V            1.179693          2.997515
 168         (E)--V            1.179693          2.997515
 169         (A1)--V           1.194405          2.813814
 170         (B2)--V           1.213748          2.942717
 171         (A1)--V           1.246350          2.685770
 172         (A1)--V           1.259761          2.727664
 173         (E)--V            1.261662          2.834668
 174         (E)--V            1.261662          2.834668
 175         (B2)--V           1.277560          3.912457
 176         (B1)--V           1.298206          2.723569
 177         (B2)--V           1.408865          2.811677
 178         (E)--V            1.409291          2.746494
 179         (E)--V            1.409291          2.746494
 180         (A1)--V           1.411364          2.958789
 181         (E)--V            1.430216          2.852716
 182         (E)--V            1.430216          2.852716
 183         (B1)--V           1.463688          2.886181
 184         (E)--V            1.550448          3.139987
 185         (E)--V            1.550448          3.139987
 186         (B2)--V           1.763410          3.523611
 187         (A1)--V           8.545236          2.524271
 188         (A1)--V          20.354053          4.586955
 Total kinetic energy from orbitals= 3.729239719410D+03
 1\1\GINC-LSQC07\FOpt\RB3LYP\GenECP\Cl8Tc2(2-)\LITAO\05-May-2015\0\\#op
 t b3lyp/genecp pop=full\\Title Card Required\\-2,1\Tc,0.,0.,0.03776108
 47\Tc,0.,0.,2.2037728777\Cl,1.6286811921,1.6286811921,2.8133332737\Cl,
 1.6286811921,-1.6286811921,2.8133332737\Cl,-1.6286811921,1.6286811921,
 2.8133332737\Cl,-1.6286811921,-1.6286811921,2.8133332737\Cl,1.62870905
 79,1.6287090579,-0.5716772724\Cl,1.6287090579,-1.6287090579,-0.5716772
 724\Cl,-1.6287090579,1.6287090579,-0.5716772724\Cl,-1.6287090579,-1.62
 87090579,-0.5716772724\\Version=EM64L-G09RevA.01\State=1-A1\HF=-3842.0
 825133\RMSD=6.671e-09\RMSF=7.668e-05\Dipole=0.,0.,-0.0000728\Quadrupol
 e=0.197464,0.197464,-0.3949279,0.,0.,0.\PG=C04V [C4(Tc1Tc1),2SGV(Cl4)]
 \\@


 AND THIS OUR LIFE, EXEMPT FROM PUBLIC HAUNT,
 FINDS TONGUES IN TREES, BOOKS IN THE RUNNING BROOKS,
 SERMONS IN STONES, AND GOOD IN EVERYTHING.
 I WOULD NOT CHANGE IT. -- W. SHAKESPEARE
 AS YOU LIKE IT, ACT II, SCENE 1.
 Job cpu time:  0 days  0 hours  8 minutes 16.3 seconds.
 File lengths (MBytes):  RWF=     20 Int=      0 D2E=      0 Chk=      3 Scr=      1
 Normal termination of Gaussian 09 at Tue May  5 12:53:37 2015.
