15
  This energy is -0.00763593 and Call times are: 15449
C	-1.39222	0.383887	1.21728
O	-0.300798	-0.12596	1.41584
O	-1.80144	0.7812	0.00300548
H	-2.16192	0.580495	1.97824
H	-1.06666	0.577298	-0.633451
C	1.39231	-0.383677	-1.21724
O	0.300655	0.125614	-1.4159
O	1.8015	-0.781044	-0.00297907
H	2.16228	-0.579682	-1.97808
H	1.06653	-0.577596	0.633392
C	4.81574	0.365612	0.159767
O	4.58886	0.441766	-1.03711
O	4.44076	-0.706302	0.856838
H	5.33048	1.18361	0.662371
H	4.00491	-1.33852	0.296382
