15
  This energy is -0.00103999 and Call times are: 29057
C	-1.80364	0.151569	0.539719
O	-1.32457	-0.413449	-0.43075
O	-1.05896	0.80479	1.44444
H	-2.87215	0.201144	0.7966
H	-0.111891	0.722586	1.15656
C	1.80366	-0.151761	-0.539592
O	1.32453	0.413765	0.430542
O	1.05897	-0.804931	-1.44434
H	2.87223	-0.201905	-0.796125
H	0.111866	-0.722307	-1.15674
C	6.05076	-0.377831	-0.0101391
O	5.15542	-0.432308	0.817623
O	6.21333	0.706958	-0.766656
H	6.7236	-1.22603	-0.130743
H	5.56081	1.3659	-0.557412
