15
  This energy is 8.1739e-05 and Call times are: 10841
C	1.20441	1.02695	-1.03062
O	0.438905	1.37728	-0.146392
O	1.31441	-0.246606	-1.4377
H	1.88419	1.68278	-1.59448
H	0.679497	-0.782531	-0.89343
C	-1.20424	-1.02699	1.03077
O	-0.439181	-1.37721	0.146138
O	-1.31429	0.246577	1.43781
H	-1.88354	-1.68292	1.5951
H	-0.679734	0.782577	0.893206
C	9.29035	-0.398874	0.196151
O	10.2322	0.375324	0.254222
O	8.15098	-0.0416506	-0.395241
H	9.38358	-1.39245	0.63298
H	8.20798	0.846136	-0.730448
