15
  This energy is 2.13e-07 and Call times are: 7975
C	-0.926214	1.26465	-1.05365
O	0.0805606	1.40094	-0.3766
O	-1.58127	0.0987212	-1.15988
H	-1.41681	2.04978	-1.64783
H	-1.091	-0.562798	-0.604366
C	0.92634	-1.26471	1.05347
O	-0.0807686	-1.40085	0.376903
O	1.58136	-0.0987642	1.15974
H	1.41732	-2.04999	1.64712
H	1.09082	0.562873	0.604627
C	17.1212	-0.444988	0.0852941
O	16.2303	0.109233	0.708869
O	17.9073	0.246746	-0.738732
H	17.2743	-1.51692	0.204647
H	17.6638	1.16567	-0.746275
