15
  This energy is -0.00120973 and Call times are: 17569
C	-0.412948	-0.840052	-1.64048
O	-0.0388676	0.30117	-1.42083
O	-0.60328	-1.7449	-0.668476
H	-0.637178	-1.26786	-2.62885
H	-0.385225	-1.29888	0.191807
C	0.413166	0.839979	1.64046
O	0.0385087	-0.301051	1.42086
O	0.603441	1.74484	0.668461
H	0.638036	1.2676	2.62876
H	0.384912	1.29898	-0.191773
C	4.01931	0.216217	0.118594
O	4.5884	-0.287617	1.07362
O	4.52113	0.102318	-1.11052
H	3.09107	0.764732	0.274159
H	5.32922	-0.398361	-1.10067
