15
  This energy is -0.00268867 and Call times are: 15534
C	-0.0235428	0.119777	-1.88481
O	-0.557316	-0.694422	-1.1481
O	0.722789	1.13689	-1.42847
H	-0.078865	0.131292	-2.98343
H	0.73245	1.06975	-0.437531
C	0.0233569	-0.119641	1.88482
O	0.557622	0.694198	1.14809
O	-0.722926	-1.13679	1.42848
H	0.0781265	-0.130778	2.98347
H	-0.732179	-1.06994	0.43752
C	4.65257	-0.275428	-0.0746395
O	4.05152	0.00381094	-1.0996
O	4.25792	0.21317	1.10054
H	5.52099	-0.931376	-0.12253
H	3.49243	0.767209	0.996412
