15
  This energy is -0.00343631 and Call times are: 5748
C	1.51802	1.10249	0.218006
O	0.983347	0.704418	-0.804849
O	1.07069	0.790467	1.44369
H	2.40716	1.74785	0.273639
H	0.273004	0.210849	1.32412
C	-1.51816	-1.1023	-0.218004
O	-0.983126	-0.704727	0.804846
O	-1.07079	-0.790328	-1.44369
H	-2.40769	-1.74712	-0.273654
H	-0.272814	-0.211118	-1.32412
C	5.35261	0.0234613	-0.0182813
O	4.83044	1.12245	0.0784206
O	4.60967	-1.0819	-0.0599092
H	6.43799	-0.0531441	-0.0710437
H	3.68461	-0.869717	-0.00507314
