15
  This energy is -0.00210981 and Call times are: 30776
C	-0.174884	-1.33011	-1.32952
O	-1.00698	-0.890106	-0.551968
O	1.0953	-0.899377	-1.35901
H	-0.345497	-2.1113	-2.08503
H	1.18254	-0.200619	-0.658517
C	0.174829	1.33027	1.32937
O	1.00707	0.889842	0.552225
O	-1.09534	0.899495	1.35889
H	0.345262	2.11193	2.08443
H	-1.18245	0.200391	0.658738
C	4.14789	0.223696	0.364088
O	4.38993	-0.94867	0.602347
O	4.33453	0.72273	-0.857241
H	3.77525	0.868011	1.15952
H	4.6608	0.054313	-1.4493
