15
  This energy is -0.00698753 and Call times are: 33970
C	1.68063	0.673012	0.538449
O	0.57001	0.890622	0.996413
O	1.89232	-0.145051	-0.503537
H	2.62572	1.10171	0.903409
H	1.0063	-0.496206	-0.783214
C	-1.68061	-0.673191	-0.538307
O	-0.570056	-0.890328	-0.996648
O	-1.8923	0.144918	0.503642
H	-2.62562	-1.1024	-0.902838
H	-1.00634	0.496457	0.783004
C	5.52168	0.306124	0.0924552
O	4.98091	-0.123191	1.09896
O	5.15439	-0.124226	-1.11395
H	6.31311	1.04921	0.182822
H	4.45773	-0.767493	-1.04575
