15
  This energy is -1.8413e-05 and Call times are: 45872
C	-1.37662	-0.46752	1.20571
O	-0.32253	-1.03537	0.966929
O	-1.74705	0.668901	0.596534
H	-2.13959	-0.797067	1.92643
H	-1.02064	0.910636	-0.036283
C	1.37672	0.467645	-1.20555
O	0.322365	1.03516	-0.967202
O	1.74713	-0.668808	-0.596411
H	2.14	0.797539	-1.92578
H	1.0205	-0.910807	0.0360428
C	42.993	0.0999111	-0.398112
O	42.501	1.07764	0.141995
O	42.9314	-1.09962	0.178811
H	43.4877	0.210538	-1.36234
H	42.4746	-1.05132	1.01116
