15
  This energy is -1.0295e-05 and Call times are: 31826
C	-0.434391	-0.345769	1.80531
O	0.0951101	-1.07052	0.977702
O	-0.819999	0.910295	1.53442
H	-0.659931	-0.612733	2.84839
H	-0.589883	1.08748	0.584568
C	0.434596	0.34585	-1.80524
O	-0.095448	1.07039	-0.977813
O	0.82015	-0.910234	-1.53437
H	0.660743	0.613029	-2.84814
H	0.589586	-1.08758	-0.584664
C	11.6824	-0.207876	-0.394636
O	12.2764	0.853424	-0.291635
O	10.8943	-0.644943	0.586908
H	11.7987	-0.803302	-1.29943
H	10.8851	-0.0303033	1.3121
