15
  This energy is -0.000918147 and Call times are: 14564
C	0.390914	1.37071	1.23925
O	0.77929	0.213679	1.20748
O	-0.441895	1.88583	0.322264
H	0.660226	2.12243	1.99592
H	-0.644707	1.16183	-0.326781
C	-0.390735	-1.37064	-1.23938
O	-0.779585	-0.213791	-1.20727
O	0.442027	-1.88578	-0.32236
H	-0.659516	-2.12218	-1.99641
H	0.644446	-1.16192	0.326959
C	4.16349	-0.0512897	-0.419975
O	3.91308	-1.11773	0.118345
O	3.95367	1.09933	0.218426
H	4.56285	-0.0414706	-1.43345
H	3.60524	0.944128	1.08922
