15
  This energy is 4.503e-06 and Call times are: 24260
C	-1.82304	0.464788	0.167044
O	-0.831348	1.1766	0.188253
O	-1.76221	-0.866038	0.00900907
H	-2.86442	0.803813	0.270721
H	-0.802247	-1.1057	-0.0781723
C	1.82302	-0.464765	-0.167273
O	0.831376	-1.17664	-0.187876
O	1.76219	0.866054	-0.00917833
H	2.86436	-0.803702	-0.271613
H	0.80227	1.10566	0.0784982
C	10.6539	-0.449527	0.039238
O	10.7856	0.103567	1.1193
O	10.6551	0.255686	-1.09133
H	10.5341	-1.53159	0.00055189
H	10.7675	1.18242	-0.911559
