15
  This energy is -0.000846965 and Call times are: 33590
C	0.121855	-0.857185	-1.67863
O	-0.423089	0.192739	-1.37652
O	0.770134	-1.62455	-0.789436
H	0.155233	-1.30222	-2.6841
H	0.703281	-1.17019	0.0912765
C	-0.121657	0.857295	1.67858
O	0.422764	-0.19292	1.37659
O	-0.769987	1.62463	0.789403
H	-0.154474	1.30267	2.68393
H	-0.703558	1.17003	-0.0912086
C	4.00721	-0.0486424	0.221556
O	4.22703	-0.96921	-0.549175
O	4.87304	0.956539	0.345923
H	3.0928	-0.0500468	0.81364
H	5.62194	0.830324	-0.225904
