15
  This energy is -2.084e-06 and Call times are: 37388
C	0.336851	0.449845	-1.80321
O	0.447036	-0.6243	-1.23344
O	-0.0741294	1.56585	-1.18241
H	0.551355	0.643551	-2.86464
H	-0.249775	1.32464	-0.235029
C	-0.33707	-0.449892	1.80316
O	-0.446676	0.624377	1.23353
O	0.0739672	-1.56588	1.18237
H	-0.552206	-0.643755	2.86443
H	0.250085	-1.32456	0.23511
C	10.5319	-0.199225	-0.385539
O	10.2529	-1.00618	0.486691
O	10.4355	1.11008	-0.157657
H	10.8633	-0.554643	-1.36052
H	10.1365	1.27775	0.729073
