15
  This energy is -2.8636e-05 and Call times are: 14522
C	0.738175	1.73175	0.153488
O	0.438339	1.09722	-0.845535
O	0.575194	1.25456	1.39667
H	1.16733	2.7445	0.171419
H	0.187207	0.34424	1.31101
C	-0.738386	-1.73165	-0.153477
O	-0.437991	-1.09737	0.845517
O	-0.57535	-1.2545	-1.39666
H	-1.16815	-2.74414	-0.1714
H	-0.186905	-0.344372	-1.31101
C	6.52881	-0.123758	-0.0808849
O	6.33857	1.06482	-0.283047
O	5.53647	-0.911436	0.331828
H	7.52121	-0.543935	-0.239988
H	4.73038	-0.416893	0.428889
