15
  This energy is -0.00367121 and Call times are: 20964
C	0.131794	0.64626	-1.76985
O	0.242333	1.24373	-0.710898
O	-0.121423	-0.669207	-1.84198
H	0.221239	1.08767	-2.7735
H	-0.190042	-1.00445	-0.90953
C	-0.131568	-0.646306	1.76985
O	-0.242704	-1.24365	0.710902
O	0.12159	0.669172	1.84198
H	-0.220354	-1.08783	2.77351
H	0.189718	1.00451	0.909531
C	3.49349	0.340491	0.0605612
O	3.00994	-0.0529304	1.10994
O	3.14907	-0.217842	-1.09925
H	4.21441	1.15708	0.0737271
H	2.51573	-0.913897	-0.964461
