15
  This energy is -8.4587e-05 and Call times are: 31784
C	-1.62852	-0.898641	0.328279
O	-1.43074	0.250772	-0.0326941
O	-0.635981	-1.76925	0.566366
H	-2.6112	-1.36172	0.501633
H	0.21791	-1.29251	0.39272
C	1.62851	0.898569	-0.328498
O	1.43075	-0.250654	0.0330544
O	0.635976	1.76919	-0.566527
H	2.61117	1.36146	-0.502495
H	-0.217895	1.2926	-0.392405
C	9.40252	0.255041	0.228475
O	9.15798	0.207719	-0.96641
O	10.4477	-0.397533	0.735775
H	8.75851	0.837509	0.886258
H	10.9199	-0.86176	0.0536615
