15
  This energy is -0.000823306 and Call times are: 18983
C	0.0347178	-1.85345	0.361815
O	0.853786	-1.15573	-0.215148
O	-1.10915	-1.36831	0.86776
H	0.118522	-2.93579	0.539776
H	-1.12309	-0.394017	0.675069
C	-0.0346148	1.85349	-0.361613
O	-0.853955	1.15567	0.214815
O	1.10922	1.36833	-0.867609
H	-0.118101	2.93595	-0.538996
H	1.12293	0.393962	-0.675354
C	4.70041	0.433797	0.0874096
O	5.86687	0.277338	-0.236143
O	3.86761	-0.604185	0.15493
H	4.3375	1.43348	0.323302
H	4.31409	-1.41133	-0.0751757
