15
  This energy is -0.00376897 and Call times are: 53097
C	-1.31364	-0.670758	1.17976
O	-0.25186	-0.120625	1.42582
O	-1.74305	-0.901294	-0.0701337
H	-2.0377	-1.03954	1.92131
H	-1.04941	-0.547284	-0.68666
C	1.31353	0.670961	-1.17976
O	0.25204	0.120291	-1.42582
O	1.74297	0.901444	0.070131
H	2.03729	1.04035	-1.92131
H	1.04956	0.546992	0.686657
C	4.73214	-0.283991	-0.266834
O	4.00351	-0.869452	0.518101
O	4.78768	1.04726	-0.280846
H	5.34319	-0.857279	-0.963009
H	4.20677	1.41676	0.374736
