15
  This energy is -0.00226277 and Call times are: 23798
C	-0.568821	1.67081	-0.672487
O	-1.06976	0.964904	0.188519
O	0.55488	1.33816	-1.32549
H	-0.955331	2.64081	-1.0187
H	0.850016	0.459352	-0.968894
C	0.568949	-1.6707	0.672644
O	1.06955	-0.965084	-0.188779
O	-0.554785	-1.33808	1.3256
H	0.955815	-2.64039	1.01933
H	-0.850191	-0.459509	0.968663
C	4.1392	-0.106227	-0.355581
O	3.88457	0.997755	0.0984873
O	5.0936	-0.86169	0.186557
H	3.57933	-0.47677	-1.21346
H	5.49831	-0.417848	0.923438
