15
  This energy is -0.00116076 and Call times are: 11515
C	-1.31102	-1.20476	0.630217
O	-0.57976	-0.451459	1.2534
O	-1.29172	-1.29837	-0.707931
H	-2.05873	-1.88528	1.06379
H	-0.601159	-0.663601	-1.03466
C	1.31086	1.20492	-0.630233
O	0.580026	0.45119	-1.25338
O	1.2916	1.29849	0.707918
H	2.05811	1.88593	-1.06384
H	0.601388	0.663365	1.03468
C	6.72359	-0.0146499	0.252665
O	7.0301	-1.10824	-0.194448
O	7.46248	1.0615	-0.0146398
H	5.83601	0.0812489	0.876932
H	8.2023	0.834901	-0.566997
