15
  This energy is -1.6639e-05 and Call times are: 48476
C	1.68303	-0.664652	-0.54135
O	1.09291	-0.804976	0.518197
O	1.18335	0.0421202	-1.56632
H	2.66908	-1.08279	-0.792393
H	0.298933	0.389604	-1.27716
C	-1.68313	0.664462	0.541264
O	-1.09274	0.805287	-0.518056
O	-1.18343	-0.0422599	1.56626
H	-2.66947	1.08204	0.79208
H	-0.298792	-0.38933	1.27727
C	45.7795	0.225943	-0.103406
O	45.7516	-0.891418	-0.593833
O	44.7682	0.666719	0.644
H	46.6411	0.868852	-0.279437
H	44.0873	0.00701589	0.714487
