15
  This energy is -2.7308e-05 and Call times are: 32078
C	0.343515	-1.85588	-0.0715358
O	-0.449126	-1.23525	0.619197
O	1.15828	-1.26364	-0.957647
H	0.493388	-2.94566	-0.0629388
H	0.974322	-0.288436	-0.916401
C	-0.343673	1.85585	0.0713697
O	0.449385	1.23529	-0.618924
O	-1.15839	1.26362	0.957523
H	-0.494021	2.94556	0.0623051
H	-0.97409	0.288473	0.916632
C	15.2947	0.319399	-0.12997
O	15.7903	-0.79591	-0.11357
O	14.0194	0.502677	0.209894
H	15.9027	1.17346	-0.425887
H	13.6101	-0.322656	0.444679
