44
  This energy is -5.9698 and Call times are: 4496
C	1.31525	-2.83392	1.53352
C	0.364733	-2.17423	0.610233
O	-0.315925	-2.82609	-0.169629
H	1.28919	-3.93237	1.36435
H	1.03258	-2.62573	2.58685
H	2.3465	-2.46616	1.34815
N	0.298611	-0.84255	0.678366
C	-0.547477	-0.0574974	-0.185571
C	0.0925685	1.30658	-0.362161
O	1.06457	1.63843	0.313716
H	0.888724	-0.323032	1.28971
H	-0.590231	-0.522659	-1.16252
C	-1.96553	0.082761	0.409992
H	-1.92321	0.569482	1.40766
H	-2.63058	0.673583	-0.252701
H	-2.41146	-0.927751	0.537914
N	-0.436827	2.13056	-1.28781
C	0.108977	3.44577	-1.52967
H	-1.2208	1.84266	-1.82777
H	-0.463349	3.96845	-2.32746
H	1.17369	3.3763	-1.85036
H	0.0667853	4.06506	-0.604544
C	5.30084	-0.695057	3.19181
C	4.79955	0.244983	2.16409
O	4.499	1.39546	2.45129
H	5.32205	-0.183361	4.17851
H	6.32911	-1.02763	2.93726
H	4.63276	-1.57942	3.25992
N	4.69485	-0.233963	0.922307
C	4.18244	0.547618	-0.175475
C	3.54765	-0.400468	-1.17534
O	3.67539	-1.61767	-1.05784
H	4.90454	-1.18458	0.712028
H	3.4014	1.2041	0.187339
C	5.30947	1.36479	-0.844272
H	6.10597	0.691057	-1.22601
H	4.92508	1.98151	-1.68237
H	5.76484	2.04572	-0.0923997
N	2.83661	0.139563	-2.1847
C	2.1921	-0.684342	-3.18068
H	2.74113	1.12657	-2.26071
H	1.65722	-0.0548641	-3.92559
H	1.45298	-1.36925	-2.70541
H	2.94173	-1.30666	-3.72097
