20
  This energy is -0.000429986 and Call times are: 93
C	-1.48809	-2.79731	1.51277
O	-1.49725	-2.87214	0.296398
O	-0.540297	-2.06584	2.193
H	-2.22143	-3.29737	2.1632
H	-0.65873	-2.09807	3.16436
C	0.197605	2.8391	-1.35882
O	-0.0593674	3.94086	-1.8275
O	-0.697879	1.80529	-1.37467
H	1.15967	2.58802	-0.889817
H	-0.344028	0.982499	-0.960151
C	1.59094	-0.56102	0.329271
O	2.28705	0.435383	0.277246
O	0.304539	-0.555138	-0.188121
H	1.89324	-1.51858	0.768571
H	-0.181148	-1.39994	-0.102183
C	5.52742	0.138455	-0.294997
O	5.96668	1.13224	0.256988
O	5.92118	-1.1313	0.0638169
H	4.79179	0.166209	-1.11291
H	5.4851	-1.82966	-0.466023
