44
  This energy is -3.3757 and Call times are: 188189
C	-0.0917766	1.89583	-2.91721
C	0.373892	0.727813	-2.13616
O	0.957641	-0.202205	-2.67534
H	0.162488	1.74595	-3.98901
H	0.4052	2.82059	-2.55588
H	-1.19253	2.00625	-2.82105
N	0.119117	0.75037	-0.82583
C	0.472437	-0.333185	0.057138
C	-0.513007	-0.343946	1.21054
O	-1.31522	0.575399	1.36209
H	-0.393143	1.49542	-0.408266
H	0.363103	-1.27314	-0.469321
C	1.91643	-0.170177	0.580165
H	2.02639	0.789126	1.12942
H	2.20521	-1.00571	1.25025
H	2.61945	-0.156918	-0.281193
N	-0.480421	-1.39685	2.05099
C	-1.38382	-1.4962	3.17357
H	0.173115	-2.13304	1.90963
H	-1.20081	-2.43347	3.74388
H	-2.44258	-1.49805	2.82674
H	-1.24843	-0.632925	3.86464
C	4.72251	-0.00344634	-3.3679
C	5.38082	-0.615999	-2.19208
O	5.79455	-1.76668	-2.22628
H	4.67581	-0.748071	-4.19204
H	5.30055	0.879287	-3.71344
H	3.68947	0.310101	-3.10792
N	5.4916	0.15301	-1.10638
C	6.06962	-0.317138	0.127887
C	5.43452	0.452203	1.27084
O	4.70522	1.41752	1.05176
H	5.11332	1.07392	-1.08043
H	5.81977	-1.36194	0.264175
C	7.60167	-0.122044	0.129147
H	7.85835	0.951018	-8.19875e-05
H	8.06017	-0.492951	1.06868
H	8.04429	-0.687184	-0.719994
N	5.69237	0.0338814	2.52564
C	5.12771	0.70067	3.67574
H	6.28166	-0.751701	2.68269
H	5.45713	0.207981	4.61701
H	4.01454	0.674664	3.63758
H	5.44721	1.76746	3.70774
