44
  This energy is -0.5986 and Call times are: 188945
C	-0.17356	-1.96626	-2.86642
C	-0.5355	-1.67713	-1.46053
O	-1.42362	-2.29961	-0.89469
H	-0.830752	-2.77372	-3.25627
H	0.883076	-2.30156	-2.92839
H	-0.310347	-1.05852	-3.49124
N	0.155653	-0.70723	-0.857227
C	-0.1108	-0.283481	0.494809
C	0.281367	1.17679	0.618776
O	0.887714	1.74516	-0.287322
H	0.847783	-0.181785	-1.34378
H	-1.17451	-0.349221	0.686702
C	0.676404	-1.14343	1.50775
H	1.76834	-1.068	1.31793
H	0.468995	-0.835928	2.55319
H	0.379339	-2.20883	1.39369
N	-0.0658538	1.82371	1.7488
C	0.259954	3.2159	1.95333
H	-0.559858	1.34797	2.46901
H	-0.110388	3.56528	2.94228
H	-0.203999	3.84823	1.16202
H	1.36257	3.371	1.91686
C	5.13247	3.4416	0.34905
C	4.58927	2.25494	-0.349462
O	3.73175	2.36712	-1.21461
H	4.62784	4.35556	-0.0328931
H	6.22354	3.5291	0.162917
H	4.94939	3.35985	1.44124
N	5.08414	1.07108	0.0192862
C	4.62385	-0.175873	-0.539101
C	4.81293	-1.2601	0.505059
O	5.43561	-1.035	1.54106
H	5.75218	0.992485	0.753732
H	3.56264	-0.105887	-0.742926
C	5.40103	-0.523606	-1.82764
H	6.48864	-0.605895	-1.61697
H	5.0463	-1.47478	-2.27481
H	5.2548	0.287058	-2.57448
N	4.26842	-2.4678	0.258095
C	4.39208	-3.55887	1.19641
H	3.76463	-2.62955	-0.58399
H	3.87738	-4.46741	0.813151
H	3.93887	-3.28678	2.17715
H	5.46383	-3.80932	1.36898
