44
  This energy is -3.5297 and Call times are: 188350
C	-0.294279	-3.44854	-0.365634
C	0.281082	-2.14121	-0.754236
O	1.23459	-2.07097	-1.51732
H	0.283235	-4.2636	-0.85352
H	-1.35334	-3.51299	-0.692712
H	-0.23921	-3.57867	0.735785
N	-0.295051	-1.05877	-0.226258
C	0.179934	0.27925	-0.476568
C	-0.165471	1.13656	0.726458
O	-0.892917	0.705436	1.61902
H	-1.0444	-1.13391	0.425431
H	1.25925	0.264813	-0.56317
C	-0.458384	0.860744	-1.75706
H	-1.56512	0.885561	-1.66455
H	-0.0900699	1.88557	-1.96826
H	-0.199143	0.213208	-2.62299
N	0.359278	2.37655	0.781979
C	0.0905727	3.2621	1.89094
H	0.949014	2.70613	0.0521446
H	0.612029	4.23483	1.75272
H	0.439346	2.81033	2.84777
H	-1.00221	3.45947	1.98047
C	8.54824	1.58073	-1.33563
C	7.11653	1.56321	-0.960035
O	6.44823	2.58779	-0.964984
H	8.85172	2.62245	-1.57767
H	8.71793	0.94069	-2.22687
H	9.16962	1.21215	-0.492363
N	6.60719	0.377457	-0.618058
C	5.24153	0.208967	-0.187779
C	5.18462	-0.982272	0.749922
O	6.15995	-1.7167	0.895026
H	7.17397	-0.440537	-0.579415
H	4.93528	1.0799	0.378179
C	4.30506	-0.00819631	-1.39654
H	4.61245	-0.907638	-1.97148
H	3.2486	-0.125425	-1.07925
H	4.36888	0.871945	-2.07301
N	4.03465	-1.1971	1.41884
C	3.88939	-2.30268	2.33686
H	3.25771	-0.589497	1.29132
H	2.87226	-2.30902	2.78701
H	4.63655	-2.23037	3.16014
H	4.04681	-3.27267	1.812
