44
  This energy is -10.3076 and Call times are: 218265
C	1.81332	-0.261217	-2.95911
C	0.539204	-0.276683	-2.20576
O	-0.538482	-0.268351	-2.78449
H	1.59539	-0.224495	-4.04862
H	2.3984	-1.17914	-2.74039
H	2.41099	0.632661	-2.68186
N	0.637159	-0.297617	-0.874467
C	-0.513564	-0.271453	-0.00630054
C	-0.107238	0.388629	1.29783
O	1.07199	0.644866	1.53335
H	1.52128	-0.262781	-0.417326
H	-1.2842	0.344281	-0.453086
C	-1.04281	-1.69929	0.251398
H	-0.255913	-2.32841	0.719425
H	-1.93727	-1.69146	0.907442
H	-1.32659	-2.16588	-0.717166
N	-1.0831	0.688492	2.17748
C	-0.792098	1.32262	3.44215
H	-2.0319	0.477139	1.96729
H	-1.72586	1.48674	4.02386
H	-0.300475	2.30962	3.28271
H	-0.106361	0.68966	4.05064
C	994.436	-0.0949808	3.47846
C	995.12	-0.298347	2.18149
O	996.323	-0.517841	2.12734
H	995.182	-0.159759	4.30077
H	993.664	-0.878033	3.63084
H	993.958	0.906487	3.50564
N	994.356	-0.226159	1.08959
C	994.885	-0.359845	-0.244775
C	994	0.435296	-1.18639
O	992.936	0.913606	-0.797623
H	993.386	-0.00616531	1.14728
H	995.874	0.0800573	-0.282599
C	994.935	-1.84307	-0.672249
H	993.919	-2.29198	-0.643748
H	995.354	-1.96032	-1.69277
H	995.582	-2.40713	0.0352045
N	994.427	0.602645	-2.45358
C	993.655	1.3492	-3.41906
H	995.293	0.211535	-2.74838
H	994.173	1.3741	-4.40287
H	993.504	2.39831	-3.07536
H	992.652	0.886128	-3.56266
