44
  This energy is -3.7948 and Call times are: 219444
C	1.31404	3.10687	0.856376
C	1.06513	2.02094	-0.118277
O	1.28356	2.17896	-1.31148
H	1.68465	4.00599	0.317766
H	2.07951	2.78974	1.59545
H	0.374062	3.36781	1.38689
N	0.59198	0.875292	0.377709
C	0.260559	-0.256722	-0.451306
C	-0.839008	-1.04219	0.238288
O	-1.17779	-0.773788	1.38933
H	0.380564	0.775552	1.34581
H	-0.137738	0.0957257	-1.39458
C	1.49847	-1.14988	-0.686016
H	1.90117	-1.52029	0.280764
H	1.25941	-2.0176	-1.33443
H	2.29292	-0.552447	-1.18429
N	-1.43105	-2.03244	-0.458073
C	-2.49059	-2.83003	0.11413
H	-1.14601	-2.23199	-1.38974
H	-2.84698	-3.59134	-0.614303
H	-3.35466	-2.18778	0.400808
H	-2.13499	-3.35847	1.02815
C	995.231	1.69418	-2.70824
C	995.328	0.737959	-1.58242
O	996.297	0.00235214	-1.45809
H	996.129	1.59152	-3.35537
H	995.183	2.73456	-2.32358
H	994.325	1.48152	-3.31429
N	994.305	0.726214	-0.72438
C	994.236	-0.178854	0.395715
C	992.773	-0.440586	0.702616
O	991.888	0.208912	0.149749
H	993.504	1.30204	-0.861763
H	994.682	-1.12581	0.117899
C	994.95	0.414746	1.62962
H	994.487	1.3811	1.92145
H	994.916	-0.27873	2.49474
H	996.017	0.605591	1.37969
N	992.485	-1.41128	1.5918
C	991.122	-1.73472	1.94224
H	993.215	-1.92876	2.02568
H	991.092	-2.55945	2.68803
H	990.55	-2.05633	1.04147
H	990.607	-0.848311	2.37905
