 Entering Gaussian System, Link 0=g09
 Input=opt-AT-pair.gjf
 Output=opt-AT-pair.log
 Initial command:
 /usr/g09/l1.exe /scratch/litao/gaussian/Gau-19447.inp -scrdir=/scratch/litao/gaussian/
 Entering Link 1 = /usr/g09/l1.exe PID=     19448.
  
 Copyright (c) 1988,1990,1992,1993,1995,1998,2003,2009, Gaussian, Inc.
                  All Rights Reserved.
  
 This is part of the Gaussian(R) 09 program.  It is based on
 the Gaussian(R) 03 system (copyright 2003, Gaussian, Inc.),
 the Gaussian(R) 98 system (copyright 1998, Gaussian, Inc.),
 the Gaussian(R) 94 system (copyright 1995, Gaussian, Inc.),
 the Gaussian 92(TM) system (copyright 1992, Gaussian, Inc.),
 the Gaussian 90(TM) system (copyright 1990, Gaussian, Inc.),
 the Gaussian 88(TM) system (copyright 1988, Gaussian, Inc.),
 the Gaussian 86(TM) system (copyright 1986, Carnegie Mellon
 University), and the Gaussian 82(TM) system (copyright 1983,
 Carnegie Mellon University). Gaussian is a federally registered
 trademark of Gaussian, Inc.
  
 This software contains proprietary and confidential information,
 including trade secrets, belonging to Gaussian, Inc.
  
 This software is provided under written license and may be
 used, copied, transmitted, or stored only in accord with that
 written license.
  
 The following legend is applicable only to US Government
 contracts under FAR:
  
                    RESTRICTED RIGHTS LEGEND
  
 Use, reproduction and disclosure by the US Government is
 subject to restrictions as set forth in subparagraphs (a)
 and (c) of the Commercial Computer Software - Restricted
 Rights clause in FAR 52.227-19.
  
 Gaussian, Inc.
 340 Quinnipiac St., Bldg. 40, Wallingford CT 06492
  
  
 ---------------------------------------------------------------
 Warning -- This program may not be used in any manner that
 competes with the business of Gaussian, Inc. or will provide
 assistance to any competitor of Gaussian, Inc.  The licensee
 of this program is prohibited from giving any competitor of
 Gaussian, Inc. access to this program.  By using this program,
 the user acknowledges that Gaussian, Inc. is engaged in the
 business of creating and licensing software in the field of
 computational chemistry and represents and warrants to the
 licensee that it is not a competitor of Gaussian, Inc. and that
 it will not use this program in any manner prohibited above.
 ---------------------------------------------------------------
  

 Cite this work as:
 Gaussian 09, Revision A.01,
 M. J. Frisch, G. W. Trucks, H. B. Schlegel, G. E. Scuseria, 
 M. A. Robb, J. R. Cheeseman, G. Scalmani, V. Barone, B. Mennucci, 
 G. A. Petersson, H. Nakatsuji, M. Caricato, X. Li, H. P. Hratchian, 
 A. F. Izmaylov, J. Bloino, G. Zheng, J. L. Sonnenberg, M. Hada, 
 M. Ehara, K. Toyota, R. Fukuda, J. Hasegawa, M. Ishida, T. Nakajima, 
 Y. Honda, O. Kitao, H. Nakai, T. Vreven, J. A. Montgomery, Jr., 
 J. E. Peralta, F. Ogliaro, M. Bearpark, J. J. Heyd, E. Brothers, 
 K. N. Kudin, V. N. Staroverov, R. Kobayashi, J. Normand, 
 K. Raghavachari, A. Rendell, J. C. Burant, S. S. Iyengar, J. Tomasi, 
 M. Cossi, N. Rega, J. M. Millam, M. Klene, J. E. Knox, J. B. Cross, 
 V. Bakken, C. Adamo, J. Jaramillo, R. Gomperts, R. E. Stratmann, 
 O. Yazyev, A. J. Austin, R. Cammi, C. Pomelli, J. W. Ochterski, 
 R. L. Martin, K. Morokuma, V. G. Zakrzewski, G. A. Voth, 
 P. Salvador, J. J. Dannenberg, S. Dapprich, A. D. Daniels, 
 O. Farkas, J. B. Foresman, J. V. Ortiz, J. Cioslowski, 
 and D. J. Fox, Gaussian, Inc., Wallingford CT, 2009.
 
 ******************************************
 Gaussian 09:  EM64L-G09RevA.01  8-May-2009
                18-May-2015 
 ******************************************
 %nprocshared=8
 Will use up to    8 processors via shared memory.
 %mem=8GB
 %chk=opt-AT-pair.chk
 ----------------
 #opt b3lyp/6-31g
 ----------------
 1/14=-1,18=20,19=15,26=3,38=1/1,3;
 2/9=110,12=2,17=6,18=5,40=1/2;
 3/5=1,6=6,11=2,16=1,25=1,30=1,71=1,74=-5/1,2,3;
 4//1;
 5/5=2,38=5/2;
 6/7=2,8=2,9=2,10=2,28=1/1;
 7//1,2,3,16;
 1/14=-1,18=20,19=15/3(2);
 2/9=110/2;
 99//99;
 2/9=110/2;
 3/5=1,6=6,11=2,16=1,25=1,30=1,71=1,74=-5/1,2,3;
 4/5=5,16=3/1;
 5/5=2,38=5/2;
 7//1,2,3,16;
 1/14=-1,18=20,19=15/3(-5);
 2/9=110/2;
 6/7=2,8=2,9=2,10=2,19=2,28=1/1;
 99/9=1/99;
 -------------------
 Title Card Required
 -------------------
 Symbolic Z-matrix:
 Charge =  0 Multiplicity = 1
 C                    -1.2962   -0.4429   -0.20677 
 N                    -0.9468   -1.72018  -0.51423 
 C                     0.36501  -2.06072  -0.51009 
 C                    -0.27313   0.47723   0.1048 
 C                     1.04496  -0.00709   0.072 
 N                     1.42173  -1.26784  -0.22923 
 H                     0.58771  -3.08981  -0.76195 
 N                    -2.60877  -0.10753  -0.21231 
 H                    -3.28858  -0.81312  -0.44383 
 H                    -2.89923   0.82986   0.01093 
 N                    -0.298     1.83199   0.45534 
 C                     0.97671   2.15415   0.62919 
 N                     1.83385   1.07897   0.41017 
 H                     1.33794   3.12999   0.90848 
 H                     2.83873   1.07099   0.4791 
 C                     5.79716  -0.17252   2.64377 
 C                     6.4293   -0.17299   1.28148 
 H                     4.81594  -0.66036   2.61926 
 H                     5.62539   0.8517    2.99431 
 H                     6.42516  -0.69011   3.37518 
 C                     5.70544   0.48549   0.19115 
 C                     7.62752  -0.74667   1.00562 
 N                     8.18436  -0.72983  -0.265 
 H                     8.21515  -1.2498    1.76366 
 N                     6.35292   0.44946  -1.06111 
 C                     7.57799  -0.13114  -1.36718 
 H                     5.87008   0.89899  -1.82936 
 H                     9.07747  -1.16364  -0.44531 
 O                     8.08837  -0.12313  -2.50091 
 O                     4.59876   1.04898   0.31068 
 

 GradGradGradGradGradGradGradGradGradGradGradGradGradGradGradGradGradGrad
 Berny optimization.
 Initialization pass.
                           ----------------------------
                           !    Initial Parameters    !
                           ! (Angstroms and Degrees)  !
 --------------------------                            --------------------------
 ! Name  Definition              Value          Derivative Info.                !
 --------------------------------------------------------------------------------
 ! R1    R(1,2)                  1.3594         estimate D2E/DX2                !
 ! R2    R(1,4)                  1.4108         estimate D2E/DX2                !
 ! R3    R(1,8)                  1.3547         estimate D2E/DX2                !
 ! R4    R(2,3)                  1.3553         estimate D2E/DX2                !
 ! R5    R(3,6)                  1.3506         estimate D2E/DX2                !
 ! R6    R(3,7)                  1.0826         estimate D2E/DX2                !
 ! R7    R(4,5)                  1.4046         estimate D2E/DX2                !
 ! R8    R(4,11)                 1.3996         estimate D2E/DX2                !
 ! R9    R(5,6)                  1.3499         estimate D2E/DX2                !
 ! R10   R(5,13)                 1.3843         estimate D2E/DX2                !
 ! R11   R(8,9)                  1.0068         estimate D2E/DX2                !
 ! R12   R(8,10)                 1.0064         estimate D2E/DX2                !
 ! R13   R(11,12)                1.3262         estimate D2E/DX2                !
 ! R14   R(12,13)                1.3924         estimate D2E/DX2                !
 ! R15   R(12,14)                1.0774         estimate D2E/DX2                !
 ! R16   R(13,15)                1.0073         estimate D2E/DX2                !
 ! R17   R(15,30)                1.7682         estimate D2E/DX2                !
 ! R18   R(16,17)                1.5018         estimate D2E/DX2                !
 ! R19   R(16,18)                1.0961         estimate D2E/DX2                !
 ! R20   R(16,19)                1.0961         estimate D2E/DX2                !
 ! R21   R(16,20)                1.0942         estimate D2E/DX2                !
 ! R22   R(17,21)                1.4651         estimate D2E/DX2                !
 ! R23   R(17,22)                1.3568         estimate D2E/DX2                !
 ! R24   R(21,25)                1.4102         estimate D2E/DX2                !
 ! R25   R(21,30)                1.2476         estimate D2E/DX2                !
 ! R26   R(22,23)                1.3874         estimate D2E/DX2                !
 ! R27   R(22,24)                1.0831         estimate D2E/DX2                !
 ! R28   R(23,26)                1.3932         estimate D2E/DX2                !
 ! R29   R(23,28)                1.0091         estimate D2E/DX2                !
 ! R30   R(25,26)                1.3898         estimate D2E/DX2                !
 ! R31   R(25,27)                1.0126         estimate D2E/DX2                !
 ! R32   R(26,29)                1.2433         estimate D2E/DX2                !
 ! A1    A(2,1,4)              118.4476         estimate D2E/DX2                !
 ! A2    A(2,1,8)              118.7295         estimate D2E/DX2                !
 ! A3    A(4,1,8)              122.8228         estimate D2E/DX2                !
 ! A4    A(1,2,3)              118.9574         estimate D2E/DX2                !
 ! A5    A(2,3,6)              127.6197         estimate D2E/DX2                !
 ! A6    A(2,3,7)              115.9275         estimate D2E/DX2                !
 ! A7    A(6,3,7)              116.4527         estimate D2E/DX2                !
 ! A8    A(1,4,5)              116.7725         estimate D2E/DX2                !
 ! A9    A(1,4,11)             132.3561         estimate D2E/DX2                !
 ! A10   A(5,4,11)             110.8715         estimate D2E/DX2                !
 ! A11   A(4,5,6)              126.0974         estimate D2E/DX2                !
 ! A12   A(4,5,13)             104.9844         estimate D2E/DX2                !
 ! A13   A(6,5,13)             128.9182         estimate D2E/DX2                !
 ! A14   A(3,6,5)              112.1054         estimate D2E/DX2                !
 ! A15   A(1,8,9)              118.7942         estimate D2E/DX2                !
 ! A16   A(1,8,10)             120.6155         estimate D2E/DX2                !
 ! A17   A(9,8,10)             120.5903         estimate D2E/DX2                !
 ! A18   A(4,11,12)            104.5302         estimate D2E/DX2                !
 ! A19   A(11,12,13)           112.5499         estimate D2E/DX2                !
 ! A20   A(11,12,14)           125.188          estimate D2E/DX2                !
 ! A21   A(13,12,14)           122.2621         estimate D2E/DX2                !
 ! A22   A(5,13,12)            107.0641         estimate D2E/DX2                !
 ! A23   A(5,13,15)            125.3831         estimate D2E/DX2                !
 ! A24   A(12,13,15)           127.5528         estimate D2E/DX2                !
 ! A25   A(13,15,30)           170.6066         estimate D2E/DX2                !
 ! A26   A(17,16,18)           110.8784         estimate D2E/DX2                !
 ! A27   A(17,16,19)           110.877          estimate D2E/DX2                !
 ! A28   A(17,16,20)           111.384          estimate D2E/DX2                !
 ! A29   A(18,16,19)           106.4248         estimate D2E/DX2                !
 ! A30   A(18,16,20)           108.5545         estimate D2E/DX2                !
 ! A31   A(19,16,20)           108.5534         estimate D2E/DX2                !
 ! A32   A(16,17,21)           117.8379         estimate D2E/DX2                !
 ! A33   A(16,17,22)           123.7991         estimate D2E/DX2                !
 ! A34   A(21,17,22)           118.363          estimate D2E/DX2                !
 ! A35   A(17,21,25)           114.9946         estimate D2E/DX2                !
 ! A36   A(17,21,30)           124.748          estimate D2E/DX2                !
 ! A37   A(25,21,30)           120.2574         estimate D2E/DX2                !
 ! A38   A(17,22,23)           122.3792         estimate D2E/DX2                !
 ! A39   A(17,22,24)           122.2252         estimate D2E/DX2                !
 ! A40   A(23,22,24)           115.3956         estimate D2E/DX2                !
 ! A41   A(22,23,26)           123.7159         estimate D2E/DX2                !
 ! A42   A(22,23,28)           120.9062         estimate D2E/DX2                !
 ! A43   A(26,23,28)           115.3779         estimate D2E/DX2                !
 ! A44   A(21,25,26)           127.658          estimate D2E/DX2                !
 ! A45   A(21,25,27)           116.3227         estimate D2E/DX2                !
 ! A46   A(26,25,27)           116.0192         estimate D2E/DX2                !
 ! A47   A(23,26,25)           112.8893         estimate D2E/DX2                !
 ! A48   A(23,26,29)           123.0584         estimate D2E/DX2                !
 ! A49   A(25,26,29)           124.0523         estimate D2E/DX2                !
 ! A50   A(15,30,21)           153.8547         estimate D2E/DX2                !
 ! D1    D(4,1,2,3)              0.0001         estimate D2E/DX2                !
 ! D2    D(8,1,2,3)            179.9999         estimate D2E/DX2                !
 ! D3    D(2,1,4,5)             -0.0001         estimate D2E/DX2                !
 ! D4    D(2,1,4,11)           180.0            estimate D2E/DX2                !
 ! D5    D(8,1,4,5)           -180.0            estimate D2E/DX2                !
 ! D6    D(8,1,4,11)             0.0001         estimate D2E/DX2                !
 ! D7    D(2,1,8,9)              0.0001         estimate D2E/DX2                !
 ! D8    D(2,1,8,10)          -179.9999         estimate D2E/DX2                !
 ! D9    D(4,1,8,9)            179.9999         estimate D2E/DX2                !
 ! D10   D(4,1,8,10)            -0.0001         estimate D2E/DX2                !
 ! D11   D(1,2,3,6)              0.0001         estimate D2E/DX2                !
 ! D12   D(1,2,3,7)            179.9998         estimate D2E/DX2                !
 ! D13   D(2,3,6,5)             -0.0002         estimate D2E/DX2                !
 ! D14   D(7,3,6,5)           -179.9999         estimate D2E/DX2                !
 ! D15   D(1,4,5,6)              0.0            estimate D2E/DX2                !
 ! D16   D(1,4,5,13)          -179.9999         estimate D2E/DX2                !
 ! D17   D(11,4,5,6)           180.0            estimate D2E/DX2                !
 ! D18   D(11,4,5,13)            0.0            estimate D2E/DX2                !
 ! D19   D(1,4,11,12)          180.0            estimate D2E/DX2                !
 ! D20   D(5,4,11,12)            0.0            estimate D2E/DX2                !
 ! D21   D(4,5,6,3)              0.0001         estimate D2E/DX2                !
 ! D22   D(13,5,6,3)          -180.0            estimate D2E/DX2                !
 ! D23   D(4,5,13,12)           -0.0001         estimate D2E/DX2                !
 ! D24   D(4,5,13,15)         -179.9998         estimate D2E/DX2                !
 ! D25   D(6,5,13,12)          180.0            estimate D2E/DX2                !
 ! D26   D(6,5,13,15)            0.0003         estimate D2E/DX2                !
 ! D27   D(4,11,12,13)          -0.0001         estimate D2E/DX2                !
 ! D28   D(4,11,12,14)        -179.9999         estimate D2E/DX2                !
 ! D29   D(11,12,13,5)           0.0001         estimate D2E/DX2                !
 ! D30   D(11,12,13,15)        179.9999         estimate D2E/DX2                !
 ! D31   D(14,12,13,5)         180.0            estimate D2E/DX2                !
 ! D32   D(14,12,13,15)         -0.0003         estimate D2E/DX2                !
 ! D33   D(5,13,15,30)          73.8314         estimate D2E/DX2                !
 ! D34   D(12,13,15,30)       -106.1683         estimate D2E/DX2                !
 ! D35   D(13,15,30,21)        -87.0557         estimate D2E/DX2                !
 ! D36   D(18,16,17,21)         59.0163         estimate D2E/DX2                !
 ! D37   D(18,16,17,22)       -120.9745         estimate D2E/DX2                !
 ! D38   D(19,16,17,21)        -58.9771         estimate D2E/DX2                !
 ! D39   D(19,16,17,22)        121.0321         estimate D2E/DX2                !
 ! D40   D(20,16,17,21)       -179.9793         estimate D2E/DX2                !
 ! D41   D(20,16,17,22)          0.0299         estimate D2E/DX2                !
 ! D42   D(16,17,21,25)       -179.9993         estimate D2E/DX2                !
 ! D43   D(16,17,21,30)          0.0127         estimate D2E/DX2                !
 ! D44   D(22,17,21,25)         -0.008          estimate D2E/DX2                !
 ! D45   D(22,17,21,30)       -179.996          estimate D2E/DX2                !
 ! D46   D(16,17,22,23)        179.9883         estimate D2E/DX2                !
 ! D47   D(16,17,22,24)         -0.003          estimate D2E/DX2                !
 ! D48   D(21,17,22,23)         -0.0024         estimate D2E/DX2                !
 ! D49   D(21,17,22,24)       -179.9937         estimate D2E/DX2                !
 ! D50   D(17,21,25,26)          0.0105         estimate D2E/DX2                !
 ! D51   D(17,21,25,27)       -179.9927         estimate D2E/DX2                !
 ! D52   D(30,21,25,26)        179.9991         estimate D2E/DX2                !
 ! D53   D(30,21,25,27)         -0.0042         estimate D2E/DX2                !
 ! D54   D(17,21,30,15)        -76.3992         estimate D2E/DX2                !
 ! D55   D(25,21,30,15)        103.6134         estimate D2E/DX2                !
 ! D56   D(17,22,23,26)          0.0124         estimate D2E/DX2                !
 ! D57   D(17,22,23,28)        179.9963         estimate D2E/DX2                !
 ! D58   D(24,22,23,26)       -179.9957         estimate D2E/DX2                !
 ! D59   D(24,22,23,28)         -0.0118         estimate D2E/DX2                !
 ! D60   D(22,23,26,25)         -0.01           estimate D2E/DX2                !
 ! D61   D(22,23,26,29)        179.9881         estimate D2E/DX2                !
 ! D62   D(28,23,26,25)       -179.9947         estimate D2E/DX2                !
 ! D63   D(28,23,26,29)          0.0034         estimate D2E/DX2                !
 ! D64   D(21,25,26,23)         -0.0018         estimate D2E/DX2                !
 ! D65   D(21,25,26,29)       -179.9998         estimate D2E/DX2                !
 ! D66   D(27,25,26,23)       -179.9986         estimate D2E/DX2                !
 ! D67   D(27,25,26,29)          0.0034         estimate D2E/DX2                !
 --------------------------------------------------------------------------------
 Trust Radius=3.00D-01 FncErr=1.00D-07 GrdErr=1.00D-06
 Number of steps in this run= 159 maximum allowed number of steps= 180.
 GradGradGradGradGradGradGradGradGradGradGradGradGradGradGradGradGradGrad

                          Input orientation:                          
 ---------------------------------------------------------------------
 Center     Atomic      Atomic             Coordinates (Angstroms)
 Number     Number       Type             X           Y           Z
 ---------------------------------------------------------------------
      1          6           0       -1.296200   -0.442895   -0.206766
      2          7           0       -0.946802   -1.720180   -0.514227
      3          6           0        0.365013   -2.060720   -0.510085
      4          6           0       -0.273134    0.477232    0.104800
      5          6           0        1.044960   -0.007087    0.071998
      6          7           0        1.421730   -1.267840   -0.229227
      7          1           0        0.587711   -3.089810   -0.761954
      8          7           0       -2.608770   -0.107534   -0.212310
      9          1           0       -3.288580   -0.813121   -0.443832
     10          1           0       -2.899230    0.829859    0.010928
     11          7           0       -0.297997    1.831990    0.455339
     12          6           0        0.976708    2.154150    0.629190
     13          7           0        1.833850    1.078970    0.410168
     14          1           0        1.337940    3.129990    0.908478
     15          1           0        2.838730    1.070990    0.479100
     16          6           0        5.797160   -0.172515    2.643770
     17          6           0        6.429300   -0.172994    1.281480
     18          1           0        4.815940   -0.660357    2.619260
     19          1           0        5.625390    0.851696    2.994310
     20          1           0        6.425160   -0.690109    3.375180
     21          6           0        5.705440    0.485487    0.191150
     22          6           0        7.627520   -0.746666    1.005620
     23          7           0        8.184360   -0.729830   -0.265004
     24          1           0        8.215150   -1.249800    1.763660
     25          7           0        6.352920    0.449456   -1.061110
     26          6           0        7.577990   -0.131143   -1.367180
     27          1           0        5.870080    0.898988   -1.829360
     28          1           0        9.077470   -1.163640   -0.445309
     29          8           0        8.088370   -0.123125   -2.500910
     30          8           0        4.598760    1.048980    0.310679
 ---------------------------------------------------------------------
                    Distance matrix (angstroms):
                    1          2          3          4          5
     1  C    0.000000
     2  N    1.359437   0.000000
     3  C    2.338587   1.355302   0.000000
     4  C    1.410805   2.380261   2.688218   0.000000
     5  C    2.397638   2.691740   2.240213   1.404640   0.000000
     6  N    2.840455   2.428123   1.350626   2.455487   1.349885
     7  H    3.295984   2.071711   1.082617   3.770425   3.226102
     8  N    1.354746   2.335363   3.570293   2.428519   3.666151
     9  H    2.040305   2.512297   3.861300   3.325496   4.437943
    10  H    2.058397   3.254299   4.391148   2.651328   4.032474
    11  N    2.570971   3.738839   4.065073   1.399595   2.309262
    12  C    3.550996   4.474117   4.408769   2.156187   2.232950
    13  N    3.534670   4.052379   3.586363   2.212401   1.384278
    14  H    4.576895   5.546917   5.468307   3.206023   3.259876
    15  H    4.456445   4.807035   4.111614   3.190039   2.132040
    16  C    7.649472   7.605868   6.558989   6.611884   5.405995
    17  C    7.872171   7.747595   6.599151   6.835934   5.521004
    18  H    6.737356   6.644634   5.618235   5.789239   4.597346
    19  H    7.735067   7.881503   6.959491   6.578912   5.500705
    20  H    8.515330   8.398473   7.327977   7.544880   6.350124
    21  C    7.074121   7.043781   5.957773   5.979203   4.687953
    22  C    9.010823   8.762229   7.534461   8.045479   6.689449
    23  N    9.485080   9.188091   7.935586   8.551196   7.183798
    24  H    9.746766   9.452586   8.212926   8.819604   7.471123
    25  N    7.748240   7.634942   6.516106   6.727905   5.446724
    26  C    8.955166   8.713475   7.515645   8.011054   6.690822
    27  H    7.469205   7.420209   6.387967   6.454296   5.264781
    28  H   10.401414  10.039946   8.758759   9.509410   8.131816
    29  O    9.666204   9.387855   8.207795   8.778662   7.499530
    30  O    6.102786   6.253157   5.316813   4.909647   3.715069
                    6          7          8          9         10
     6  N    0.000000
     7  H    2.073393   0.000000
     8  N    4.194225   4.406083   0.000000
     9  H    4.737071   4.506678   1.006776   0.000000
    10  H    4.809232   5.302821   1.006433   1.748652   0.000000
    11  N    3.610407   5.146882   3.089851   4.092518   2.822797
    12  C    3.555972   5.439275   4.321920   5.305540   4.142329
    13  N    2.467020   4.506158   4.640274   5.527080   4.756416
    14  H    4.543380   6.483757   5.226303   6.227484   4.904060
    15  H    2.824844   4.890763   5.616246   6.476543   5.762076
    16  C    5.347732   6.873713   8.878123   9.617397   9.141324
    17  C    5.343845   6.841608   9.160917   9.890584   9.467919
    18  H    4.472536   5.934035   7.965533   8.665398   8.279371
    19  H    5.705645   7.417762   8.888415   9.698005   9.031622
    20  H    6.193532   7.546539   9.737626  10.438234  10.028596
    21  C    4.647692   6.315244   8.345091   9.109445   8.613444
    22  C    6.348882   7.627159  10.328285  11.012110  10.690524
    23  N    6.784092   7.970291  10.811183  11.474636  11.196193
    24  H    7.079723   8.242705  11.061938  11.721754  11.442312
    25  N    5.287511   6.771524   9.019013   9.743390   9.321816
    26  C    6.362905   7.614723  10.252042  10.927031  10.611072
    27  H    5.200326   6.704721   8.690157   9.419770   8.960594
    28  H    7.659498   8.711280  11.736177  12.371017  12.150043
    29  O    7.135475   8.251368  10.939229  11.581997  11.311271
    30  O    3.968964   5.862477   7.318438   8.139216   7.507178
                   11         12         13         14         15
    11  N    0.000000
    12  C    1.326229   0.000000
    13  N    2.261383   1.392363   0.000000
    14  H    2.136920   1.077383   2.168161   0.000000
    15  H    3.227808   2.159372   1.007273   2.583838   0.000000
    16  C    6.779248   5.719149   4.718370   5.813985   3.870970
    17  C    7.068168   5.964213   4.841979   6.080360   3.883749
    18  H    6.086600   5.159606   4.098562   5.421253   3.389278
    19  H    6.518732   5.375911   4.594042   5.284273   3.760299
    20  H    7.751600   6.731709   5.744655   6.823312   4.934696
    21  C    6.158256   5.033609   3.922933   5.155872   2.940026
    22  C    8.352610   7.265654   6.103615   7.388959   5.149136
    23  N    8.890005   7.814549   6.637514   7.946618   5.689675
    24  H    9.147831   8.078920   6.926478   8.198165   5.995169
    25  N    6.960296   5.887848   4.794053   6.017854   3.886912
    26  C    8.319053   7.265327   6.133391   7.399448   5.226324
    27  H    6.643457   5.618273   4.619419   5.745731   3.814139
    28  H    9.883539   8.819559   7.630935   8.953676   6.691037
    29  O    9.104561   8.096866   7.002744   8.232557   6.153462
    30  O    4.961075   3.800278   2.766862   3.914194   1.768207
                   16         17         18         19         20
    16  C    0.000000
    17  C    1.501811   0.000000
    18  H    1.096076   2.151769   0.000000
    19  H    1.096080   2.151755   1.755613   0.000000
    20  H    1.094188   2.156619   1.778170   1.778161   0.000000
    21  C    2.541008   1.465056   2.828407   2.828113   3.469592
    22  C    2.522579   1.356809   3.242879   3.243173   2.657759
    23  N    3.803983   2.404561   4.435094   4.435389   4.043180
    24  H    2.789590   2.140390   3.554451   3.554946   2.472714
    25  N    3.797611   2.425079   4.139942   4.139750   4.580884
    26  C    4.388711   2.887324   4.878595   4.878649   4.912376
    27  H    4.600253   3.337544   4.830423   4.830104   5.469971
    28  H    4.613586   3.313002   5.273093   5.273463   4.674946
    29  O    5.632035   4.130554   6.100292   6.100327   6.133202
    30  O    2.893359   2.405525   2.880720   2.880063   3.968795
                   21         22         23         24         25
    21  C    0.000000
    22  C    2.424037   0.000000
    23  N    2.798234   1.387386   0.000000
    24  H    3.432587   1.083087   2.094468   0.000000
    25  N    1.410207   2.706785   2.319197   3.786119   0.000000
    26  C    2.512980   2.451836   1.393163   3.385192   1.389810
    27  H    2.068949   3.719393   3.233597   4.798587   1.012631
    28  H    3.807268   2.093184   1.009132   2.372881   3.225595
    29  O    3.646361   3.591231   2.318745   4.412712   2.326512
    30  O    1.247619   3.588966   4.043773   4.524801   2.306146
                   26         27         28         29         30
    26  C    0.000000
    27  H    2.047373   0.000000
    28  H    2.040671   4.056770   0.000000
    29  O    1.243341   2.533082   2.507287   0.000000
    30  O    3.617141   2.493696   5.052331   4.632088   0.000000
 Stoichiometry    C10H11N7O2
 Framework group  C1[X(C10H11N7O2)]
 Deg. of freedom    84
 Full point group                 C1      NOp   1
 Largest Abelian subgroup         C1      NOp   1
 Largest concise Abelian subgroup C1      NOp   1
                         Standard orientation:                         
 ---------------------------------------------------------------------
 Center     Atomic      Atomic             Coordinates (Angstroms)
 Number     Number       Type             X           Y           Z
 ---------------------------------------------------------------------
      1          6           0       -4.532066   -0.560373    0.157394
      2          7           0       -4.163533   -1.630515    0.910421
      3          6           0       -2.848318   -1.827130    1.171943
      4          6           0       -3.524563    0.303313   -0.321517
      5          6           0       -2.200868   -0.016169    0.023124
      6          7           0       -1.805256   -1.070136    0.767995
      7          1           0       -2.610122   -2.693605    1.775715
      8          7           0       -5.847956   -0.368256   -0.101184
      9          1           0       -6.515977   -1.022942    0.271282
     10          1           0       -6.152411    0.414637   -0.655524
     11          7           0       -3.570203    1.463526   -1.102983
     12          6           0       -2.302227    1.832630   -1.224969
     13          7           0       -1.429764    0.972799   -0.563022
     14          1           0       -1.956490    2.695934   -1.768961
     15          1           0       -0.426164    1.039091   -0.508329
     16          6           0        2.508764    1.892965    1.866856
     17          6           0        3.163781    0.885962    0.965560
     18          1           0        1.533510    1.531567    2.212765
     19          1           0        2.319874    2.831045    1.332330
     20          1           0        3.129968    2.109462    2.741203
     21          6           0        2.451251    0.492441   -0.252566
     22          6           0        4.372710    0.322980    1.215505
     23          7           0        4.950704   -0.605455    0.361824
     24          1           0        4.952943    0.568188    2.096572
     25          7           0        3.120136   -0.455509   -1.054231
     26          6           0        4.356496   -1.045153   -0.819060
     27          1           0        2.645432   -0.741816   -1.901642
     28          1           0        5.851436   -1.010266    0.569563
     29          8           0        4.885825   -1.877936   -1.575485
     30          8           0        1.336594    0.933528   -0.598306
 ---------------------------------------------------------------------
 Rotational constants (GHZ):      0.8222151      0.1392578      0.1349331
 Standard basis: 6-31G (6D, 7F)
 There are   193 symmetry adapted basis functions of A   symmetry.
 Integral buffers will be    131072 words long.
 Raffenetti 2 integral format.
 Two-electron integral symmetry is turned on.
   193 basis functions,   462 primitive gaussians,   193 cartesian basis functions
    68 alpha electrons       68 beta electrons
       nuclear repulsion energy      1307.5088322717 Hartrees.
 NAtoms=   30 NActive=   30 NUniq=   30 SFac= 7.50D-01 NAtFMM=   80 NAOKFM=F Big=F
 One-electron integrals computed using PRISM.
 NBasis=   193 RedAO= T  NBF=   193
 NBsUse=   193 1.00D-06 NBFU=   193
 Harris functional with IExCor=  402 diagonalized for initial guess.
 ExpMin= 1.61D-01 ExpMax= 5.48D+03 ExpMxC= 8.25D+02 IAcc=1 IRadAn=         1 AccDes= 0.00D+00
 HarFok:  IExCor=  402 AccDes= 0.00D+00 IRadAn=         1 IDoV= 1
 ScaDFX=  1.000000  1.000000  1.000000  1.000000
 FoFCou: FMM=F IPFlag=           0 FMFlag=      100000 FMFlg1=           0
         NFxFlg=           0 DoJE=T BraDBF=F KetDBF=T FulRan=T
         Omega=  0.000000  0.000000  1.000000  0.000000  0.000000 ICntrl=     500 IOpCl=  0
         NMat0=    1 NMatS0=    1 NMatT0=    0 NMatD0=    1 NMtDS0=    0 NMtDT0=    0
         I1Cent=           4 NGrid=           0.
 Petite list used in FoFCou.
 Initial guess orbital symmetries:
       Occupied  (A) (A) (A) (A) (A) (A) (A) (A) (A) (A) (A) (A)
                 (A) (A) (A) (A) (A) (A) (A) (A) (A) (A) (A) (A)
                 (A) (A) (A) (A) (A) (A) (A) (A) (A) (A) (A) (A)
                 (A) (A) (A) (A) (A) (A) (A) (A) (A) (A) (A) (A)
                 (A) (A) (A) (A) (A) (A) (A) (A) (A) (A) (A) (A)
                 (A) (A) (A) (A) (A) (A) (A) (A)
       Virtual   (A) (A) (A) (A) (A) (A) (A) (A) (A) (A) (A) (A)
                 (A) (A) (A) (A) (A) (A) (A) (A) (A) (A) (A) (A)
                 (A) (A) (A) (A) (A) (A) (A) (A) (A) (A) (A) (A)
                 (A) (A) (A) (A) (A) (A) (A) (A) (A) (A) (A) (A)
                 (A) (A) (A) (A) (A) (A) (A) (A) (A) (A) (A) (A)
                 (A) (A) (A) (A) (A) (A) (A) (A) (A) (A) (A) (A)
                 (A) (A) (A) (A) (A) (A) (A) (A) (A) (A) (A) (A)
                 (A) (A) (A) (A) (A) (A) (A) (A) (A) (A) (A) (A)
                 (A) (A) (A) (A) (A) (A) (A) (A) (A) (A) (A) (A)
                 (A) (A) (A) (A) (A) (A) (A) (A) (A) (A) (A) (A)
                 (A) (A) (A) (A) (A)
 The electronic state of the initial guess is 1-A.
 Requested convergence on RMS density matrix=1.00D-08 within 128 cycles.
 Requested convergence on MAX density matrix=1.00D-06.
 Requested convergence on             energy=1.00D-06.
 No special actions if energy rises.
 Keep R1 ints in memory in canonical form, NReq=179288983.
 Integral accuracy reduced to 1.0D-05 until final iterations.
 Initial convergence to 1.0D-05 achieved.  Increase integral accuracy.
 SCF Done:  E(RB3LYP) =  -921.172126614     A.U. after   16 cycles
             Convg  =    0.8501D-08             -V/T =  2.0056

 **********************************************************************

            Population analysis using the SCF density.

 **********************************************************************

 Orbital symmetries:
       Occupied  (A) (A) (A) (A) (A) (A) (A) (A) (A) (A) (A) (A)
                 (A) (A) (A) (A) (A) (A) (A) (A) (A) (A) (A) (A)
                 (A) (A) (A) (A) (A) (A) (A) (A) (A) (A) (A) (A)
                 (A) (A) (A) (A) (A) (A) (A) (A) (A) (A) (A) (A)
                 (A) (A) (A) (A) (A) (A) (A) (A) (A) (A) (A) (A)
                 (A) (A) (A) (A) (A) (A) (A) (A)
       Virtual   (A) (A) (A) (A) (A) (A) (A) (A) (A) (A) (A) (A)
                 (A) (A) (A) (A) (A) (A) (A) (A) (A) (A) (A) (A)
                 (A) (A) (A) (A) (A) (A) (A) (A) (A) (A) (A) (A)
                 (A) (A) (A) (A) (A) (A) (A) (A) (A) (A) (A) (A)
                 (A) (A) (A) (A) (A) (A) (A) (A) (A) (A) (A) (A)
                 (A) (A) (A) (A) (A) (A) (A) (A) (A) (A) (A) (A)
                 (A) (A) (A) (A) (A) (A) (A) (A) (A) (A) (A) (A)
                 (A) (A) (A) (A) (A) (A) (A) (A) (A) (A) (A) (A)
                 (A) (A) (A) (A) (A) (A) (A) (A) (A) (A) (A) (A)
                 (A) (A) (A) (A) (A) (A) (A) (A) (A) (A) (A) (A)
                 (A) (A) (A) (A) (A)
 The electronic state is 1-A.
 Alpha  occ. eigenvalues --  -19.15746 -19.14846 -14.42388 -14.41239 -14.36704
 Alpha  occ. eigenvalues --  -14.34153 -14.32094 -14.31777 -14.31287 -10.36607
 Alpha  occ. eigenvalues --  -10.34050 -10.28524 -10.26696 -10.24667 -10.24541
 Alpha  occ. eigenvalues --  -10.23626 -10.23586 -10.20328 -10.20133  -1.10285
 Alpha  occ. eigenvalues --   -1.07739  -1.02300  -1.00407  -0.97291  -0.95524
 Alpha  occ. eigenvalues --   -0.92900  -0.87440  -0.85014  -0.84345  -0.75785
 Alpha  occ. eigenvalues --   -0.73893  -0.70563  -0.69266  -0.65666  -0.63946
 Alpha  occ. eigenvalues --   -0.61054  -0.59476  -0.59149  -0.57262  -0.54787
 Alpha  occ. eigenvalues --   -0.54264  -0.50899  -0.50273  -0.49672  -0.48764
 Alpha  occ. eigenvalues --   -0.46182  -0.44854  -0.44784  -0.44476  -0.43903
 Alpha  occ. eigenvalues --   -0.43186  -0.42396  -0.41847  -0.41348  -0.40791
 Alpha  occ. eigenvalues --   -0.38635  -0.37490  -0.34286  -0.31060  -0.30560
 Alpha  occ. eigenvalues --   -0.29063  -0.28875  -0.27466  -0.26093  -0.25935
 Alpha  occ. eigenvalues --   -0.25214  -0.22638  -0.20721
 Alpha virt. eigenvalues --   -0.06591  -0.01571  -0.00895   0.01779   0.04318
 Alpha virt. eigenvalues --    0.05420   0.08247   0.08497   0.09346   0.09640
 Alpha virt. eigenvalues --    0.11521   0.13921   0.14515   0.14636   0.16285
 Alpha virt. eigenvalues --    0.16819   0.17666   0.17683   0.18211   0.19404
 Alpha virt. eigenvalues --    0.19966   0.21616   0.25230   0.25744   0.26203
 Alpha virt. eigenvalues --    0.27645   0.29613   0.30768   0.32265   0.33236
 Alpha virt. eigenvalues --    0.34956   0.36352   0.36884   0.37864   0.40796
 Alpha virt. eigenvalues --    0.43814   0.45847   0.47286   0.48541   0.50348
 Alpha virt. eigenvalues --    0.51807   0.52850   0.53842   0.55276   0.56096
 Alpha virt. eigenvalues --    0.57019   0.57998   0.59366   0.60954   0.61011
 Alpha virt. eigenvalues --    0.61154   0.61777   0.62437   0.63525   0.64250
 Alpha virt. eigenvalues --    0.64375   0.66003   0.66679   0.67856   0.69087
 Alpha virt. eigenvalues --    0.69969   0.71007   0.71203   0.71365   0.71737
 Alpha virt. eigenvalues --    0.72962   0.73177   0.74684   0.75868   0.79243
 Alpha virt. eigenvalues --    0.80522   0.82350   0.83469   0.83501   0.83772
 Alpha virt. eigenvalues --    0.84649   0.85472   0.85901   0.86111   0.88176
 Alpha virt. eigenvalues --    0.89428   0.90222   0.90880   0.91431   0.92287
 Alpha virt. eigenvalues --    0.92469   0.93792   0.94975   0.96190   0.96500
 Alpha virt. eigenvalues --    0.97683   0.97902   1.02139   1.02732   1.05395
 Alpha virt. eigenvalues --    1.06745   1.07827   1.08423   1.08889   1.12215
 Alpha virt. eigenvalues --    1.13628   1.14390   1.16499   1.19937   1.23835
 Alpha virt. eigenvalues --    1.26326   1.29758   1.31229   1.38424   1.40927
 Alpha virt. eigenvalues --    1.42866   1.44917   1.44995   1.53211   1.53515
 Alpha virt. eigenvalues --    1.59822   1.60597   1.64909   1.69411   1.71356
 Alpha virt. eigenvalues --    1.87168   1.93208   1.97372   2.01670   2.08246
          Condensed to atoms (all electrons):
              1          2          3          4          5          6
     1  C    4.936855   0.489784  -0.055908   0.183943  -0.088358  -0.038765
     2  N    0.489784   6.946526   0.385723  -0.088772  -0.050631  -0.086835
     3  C   -0.055908   0.385723   4.877906  -0.051270  -0.060490   0.392081
     4  C    0.183943  -0.088772  -0.051270   5.579092   0.269507  -0.052461
     5  C   -0.088358  -0.050631  -0.060490   0.269507   5.171886   0.362963
     6  N   -0.038765  -0.086835   0.392081  -0.052461   0.362963   6.894448
     7  H    0.006235  -0.068082   0.397691  -0.001237   0.007148  -0.068043
     8  N    0.193250  -0.109857   0.004052  -0.106895   0.007725  -0.000586
     9  H   -0.003450   0.005644   0.000406   0.010160  -0.000091   0.000071
    10  H   -0.027057   0.002757  -0.000182  -0.003774   0.000648  -0.000016
    11  N   -0.026973   0.003308   0.000660   0.371396  -0.104550   0.006229
    12  C    0.003804  -0.000431  -0.000349  -0.087964  -0.109757   0.002984
    13  N    0.010554   0.000462   0.004339  -0.122513   0.195289  -0.057020
    14  H   -0.000193   0.000002   0.000003   0.005287   0.003548  -0.000050
    15  H    0.000036   0.000035   0.000092   0.008140  -0.006901   0.002660
    16  C    0.000000   0.000000   0.000000   0.000000  -0.000007  -0.000006
    17  C    0.000000   0.000000   0.000000   0.000000   0.000001  -0.000001
    18  H    0.000000   0.000000   0.000001   0.000002   0.000046   0.000039
    19  H    0.000000   0.000000   0.000000   0.000000   0.000000   0.000000
    20  H    0.000000   0.000000   0.000000   0.000000   0.000000   0.000000
    21  C    0.000000   0.000000   0.000001   0.000006   0.000156   0.000113
    22  C    0.000000   0.000000   0.000000   0.000000   0.000000   0.000000
    23  N    0.000000   0.000000   0.000000   0.000000   0.000000   0.000000
    24  H    0.000000   0.000000   0.000000   0.000000   0.000000   0.000000
    25  N    0.000000   0.000000   0.000000   0.000000  -0.000004  -0.000002
    26  C    0.000000   0.000000   0.000000   0.000000   0.000000   0.000000
    27  H    0.000000   0.000000   0.000000   0.000000   0.000001   0.000001
    28  H    0.000000   0.000000   0.000000   0.000000   0.000000   0.000000
    29  O    0.000000   0.000000   0.000000   0.000000   0.000000   0.000000
    30  O    0.000000   0.000000   0.000001   0.000014  -0.000378  -0.000119
              7          8          9         10         11         12
     1  C    0.006235   0.193250  -0.003450  -0.027057  -0.026973   0.003804
     2  N   -0.068082  -0.109857   0.005644   0.002757   0.003308  -0.000431
     3  C    0.397691   0.004052   0.000406  -0.000182   0.000660  -0.000349
     4  C   -0.001237  -0.106895   0.010160  -0.003774   0.371396  -0.087964
     5  C    0.007148   0.007725  -0.000091   0.000648  -0.104550  -0.109757
     6  N   -0.068043  -0.000586   0.000071  -0.000016   0.006229   0.002984
     7  H    0.581921  -0.000036  -0.000038   0.000003   0.000009   0.000001
     8  N   -0.000036   7.141549   0.292959   0.330163   0.001019  -0.000026
     9  H   -0.000038   0.292959   0.387299  -0.022303  -0.000049   0.000007
    10  H    0.000003   0.330163  -0.022303   0.370957   0.006420  -0.000151
    11  N    0.000009   0.001019  -0.000049   0.006420   6.805431   0.486502
    12  C    0.000001  -0.000026   0.000007  -0.000151   0.486502   4.804833
    13  N   -0.000069  -0.000132   0.000002   0.000030  -0.097304   0.266478
    14  H    0.000000  -0.000002   0.000000  -0.000006  -0.034213   0.377880
    15  H   -0.000009   0.000001   0.000000   0.000000   0.002227  -0.006822
    16  C    0.000000   0.000000   0.000000   0.000000   0.000000   0.000000
    17  C    0.000000   0.000000   0.000000   0.000000   0.000000   0.000001
    18  H    0.000000   0.000000   0.000000   0.000000   0.000000  -0.000001
    19  H    0.000000   0.000000   0.000000   0.000000   0.000000   0.000000
    20  H    0.000000   0.000000   0.000000   0.000000   0.000000   0.000000
    21  C    0.000000   0.000000   0.000000   0.000000   0.000000  -0.000011
    22  C    0.000000   0.000000   0.000000   0.000000   0.000000   0.000000
    23  N    0.000000   0.000000   0.000000   0.000000   0.000000   0.000000
    24  H    0.000000   0.000000   0.000000   0.000000   0.000000   0.000000
    25  N    0.000000   0.000000   0.000000   0.000000   0.000000   0.000000
    26  C    0.000000   0.000000   0.000000   0.000000   0.000000   0.000000
    27  H    0.000000   0.000000   0.000000   0.000000   0.000000   0.000000
    28  H    0.000000   0.000000   0.000000   0.000000   0.000000   0.000000
    29  O    0.000000   0.000000   0.000000   0.000000   0.000000   0.000000
    30  O    0.000000   0.000000   0.000000   0.000000  -0.000006   0.000030
             13         14         15         16         17         18
     1  C    0.010554  -0.000193   0.000036   0.000000   0.000000   0.000000
     2  N    0.000462   0.000002   0.000035   0.000000   0.000000   0.000000
     3  C    0.004339   0.000003   0.000092   0.000000   0.000000   0.000001
     4  C   -0.122513   0.005287   0.008140   0.000000   0.000000   0.000002
     5  C    0.195289   0.003548  -0.006901  -0.000007   0.000001   0.000046
     6  N   -0.057020  -0.000050   0.002660  -0.000006  -0.000001   0.000039
     7  H   -0.000069   0.000000  -0.000009   0.000000   0.000000   0.000000
     8  N   -0.000132  -0.000002   0.000001   0.000000   0.000000   0.000000
     9  H    0.000002   0.000000   0.000000   0.000000   0.000000   0.000000
    10  H    0.000030  -0.000006   0.000000   0.000000   0.000000   0.000000
    11  N   -0.097304  -0.034213   0.002227   0.000000   0.000000   0.000000
    12  C    0.266478   0.377880  -0.006822   0.000000   0.000001  -0.000001
    13  N    7.373134  -0.055832   0.250074  -0.000074   0.000064   0.000041
    14  H   -0.055832   0.534508   0.000547   0.000000   0.000000   0.000000
    15  H    0.250074   0.000547   0.305953   0.000359  -0.000524   0.000286
    16  C   -0.000074   0.000000   0.000359   5.083982   0.341869   0.373231
    17  C    0.000064   0.000000  -0.000524   0.341869   5.277845  -0.033407
    18  H    0.000041   0.000000   0.000286   0.373231  -0.033407   0.536678
    19  H    0.000002   0.000000   0.000038   0.372161  -0.035037  -0.032280
    20  H    0.000000   0.000000   0.000003   0.363875  -0.038023  -0.027541
    21  C    0.001007   0.000003  -0.003747  -0.041518   0.210317  -0.004060
    22  C    0.000001   0.000000  -0.000013  -0.042877   0.540494   0.000358
    23  N    0.000000   0.000000   0.000001   0.004572  -0.027998  -0.000082
    24  H    0.000000   0.000000   0.000000  -0.004132  -0.016937   0.000083
    25  N   -0.000052   0.000000   0.000534   0.005209  -0.162745   0.000056
    26  C    0.000000   0.000000   0.000000   0.000324  -0.003905  -0.000004
    27  H   -0.000018   0.000000   0.000104  -0.000093   0.006704  -0.000001
    28  H    0.000000   0.000000   0.000000  -0.000090   0.002499   0.000002
    29  O    0.000000   0.000000   0.000000   0.000001  -0.000003   0.000000
    30  O   -0.027387  -0.000016   0.069192   0.004298  -0.112343   0.002367
             19         20         21         22         23         24
     1  C    0.000000   0.000000   0.000000   0.000000   0.000000   0.000000
     2  N    0.000000   0.000000   0.000000   0.000000   0.000000   0.000000
     3  C    0.000000   0.000000   0.000001   0.000000   0.000000   0.000000
     4  C    0.000000   0.000000   0.000006   0.000000   0.000000   0.000000
     5  C    0.000000   0.000000   0.000156   0.000000   0.000000   0.000000
     6  N    0.000000   0.000000   0.000113   0.000000   0.000000   0.000000
     7  H    0.000000   0.000000   0.000000   0.000000   0.000000   0.000000
     8  N    0.000000   0.000000   0.000000   0.000000   0.000000   0.000000
     9  H    0.000000   0.000000   0.000000   0.000000   0.000000   0.000000
    10  H    0.000000   0.000000   0.000000   0.000000   0.000000   0.000000
    11  N    0.000000   0.000000   0.000000   0.000000   0.000000   0.000000
    12  C    0.000000   0.000000  -0.000011   0.000000   0.000000   0.000000
    13  N    0.000002   0.000000   0.001007   0.000001   0.000000   0.000000
    14  H    0.000000   0.000000   0.000003   0.000000   0.000000   0.000000
    15  H    0.000038   0.000003  -0.003747  -0.000013   0.000001   0.000000
    16  C    0.372161   0.363875  -0.041518  -0.042877   0.004572  -0.004132
    17  C   -0.035037  -0.038023   0.210317   0.540494  -0.027998  -0.016937
    18  H   -0.032280  -0.027541  -0.004060   0.000358  -0.000082   0.000083
    19  H    0.554035  -0.028701  -0.004274   0.000361  -0.000083   0.000089
    20  H   -0.028701   0.583030   0.006489  -0.004827   0.000133   0.004179
    21  C   -0.004274   0.006489   4.739508  -0.035871  -0.013847   0.003582
    22  C    0.000361  -0.004827  -0.035871   4.909761   0.182475   0.362982
    23  N   -0.000083   0.000133  -0.013847   0.182475   7.504126  -0.047714
    24  H    0.000089   0.004179   0.003582   0.362982  -0.047714   0.517209
    25  N    0.000078  -0.000067   0.048596   0.003619  -0.183236  -0.000224
    26  C   -0.000006  -0.000022   0.002451  -0.025904   0.066322   0.002045
    27  H    0.000000   0.000002  -0.008783  -0.000709   0.005108   0.000016
    28  H    0.000002  -0.000004   0.000023  -0.018480   0.310657  -0.003863
    29  O    0.000000   0.000000  -0.000029   0.001302  -0.112519  -0.000068
    30  O    0.002652   0.000326   0.550696   0.003608   0.000037  -0.000056
             25         26         27         28         29         30
     1  C    0.000000   0.000000   0.000000   0.000000   0.000000   0.000000
     2  N    0.000000   0.000000   0.000000   0.000000   0.000000   0.000000
     3  C    0.000000   0.000000   0.000000   0.000000   0.000000   0.000001
     4  C    0.000000   0.000000   0.000000   0.000000   0.000000   0.000014
     5  C   -0.000004   0.000000   0.000001   0.000000   0.000000  -0.000378
     6  N   -0.000002   0.000000   0.000001   0.000000   0.000000  -0.000119
     7  H    0.000000   0.000000   0.000000   0.000000   0.000000   0.000000
     8  N    0.000000   0.000000   0.000000   0.000000   0.000000   0.000000
     9  H    0.000000   0.000000   0.000000   0.000000   0.000000   0.000000
    10  H    0.000000   0.000000   0.000000   0.000000   0.000000   0.000000
    11  N    0.000000   0.000000   0.000000   0.000000   0.000000  -0.000006
    12  C    0.000000   0.000000   0.000000   0.000000   0.000000   0.000030
    13  N   -0.000052   0.000000  -0.000018   0.000000   0.000000  -0.027387
    14  H    0.000000   0.000000   0.000000   0.000000   0.000000  -0.000016
    15  H    0.000534   0.000000   0.000104   0.000000   0.000000   0.069192
    16  C    0.005209   0.000324  -0.000093  -0.000090   0.000001   0.004298
    17  C   -0.162745  -0.003905   0.006704   0.002499  -0.000003  -0.112343
    18  H    0.000056  -0.000004  -0.000001   0.000002   0.000000   0.002367
    19  H    0.000078  -0.000006   0.000000   0.000002   0.000000   0.002652
    20  H   -0.000067  -0.000022   0.000002  -0.000004   0.000000   0.000326
    21  C    0.048596   0.002451  -0.008783   0.000023  -0.000029   0.550696
    22  C    0.003619  -0.025904  -0.000709  -0.018480   0.001302   0.003608
    23  N   -0.183236   0.066322   0.005108   0.310657  -0.112519   0.000037
    24  H   -0.000224   0.002045   0.000016  -0.003863  -0.000068  -0.000056
    25  N    7.869110   0.047521   0.293451   0.005842  -0.108610  -0.116467
    26  C    0.047521   4.585371  -0.014918  -0.010785   0.651175   0.000403
    27  H    0.293451  -0.014918   0.349505  -0.000074   0.002211   0.004475
    28  H    0.005842  -0.010785  -0.000074   0.353521   0.004454   0.000003
    29  O   -0.108610   0.651175   0.002211   0.004454   7.980756  -0.000011
    30  O   -0.116467   0.000403   0.004475   0.000003  -0.000011   8.105812
 Mulliken atomic charges:
              1
     1  C    0.416241
     2  N   -0.429634
     3  C    0.105244
     4  C    0.087338
     5  C    0.402248
     6  N   -0.357686
     7  H    0.144505
     8  N   -0.753184
     9  H    0.329383
    10  H    0.342509
    11  N   -0.420104
    12  C    0.262991
    13  N   -0.741077
    14  H    0.168534
    15  H    0.377737
    16  C   -0.461081
    17  C    0.051128
    18  H    0.184187
    19  H    0.170963
    20  H    0.141149
    21  C    0.549192
    22  C    0.123720
    23  N   -0.687953
    24  H    0.182810
    25  N   -0.702609
    26  C    0.699932
    27  H    0.363016
    28  H    0.356293
    29  O   -0.418658
    30  O   -0.487131
 Sum of Mulliken atomic charges =   0.00000
 Mulliken charges with hydrogens summed into heavy atoms:
              1
     1  C    0.416241
     2  N   -0.429634
     3  C    0.249750
     4  C    0.087338
     5  C    0.402248
     6  N   -0.357686
     8  N   -0.081292
    11  N   -0.420104
    12  C    0.431525
    13  N   -0.363341
    16  C    0.035217
    17  C    0.051128
    21  C    0.549192
    22  C    0.306530
    23  N   -0.331660
    25  N   -0.339592
    26  C    0.699932
    29  O   -0.418658
    30  O   -0.487131
 Sum of Mulliken charges with hydrogens summed into heavy atoms =   0.00000
 Electronic spatial extent (au):  <R**2>=           7780.8534
 Charge=              0.0000 electrons
 Dipole moment (field-independent basis, Debye):
    X=              5.1325    Y=              2.9191    Z=              2.4012  Tot=              6.3741
 Quadrupole moment (field-independent basis, Debye-Ang):
   XX=            -83.2941   YY=           -114.5992   ZZ=           -108.0077
   XY=              8.2051   XZ=             19.8868   YZ=             -0.9641
 Traceless Quadrupole moment (field-independent basis, Debye-Ang):
   XX=             18.6729   YY=            -12.6322   ZZ=             -6.0407
   XY=              8.2051   XZ=             19.8868   YZ=             -0.9641
 Octapole moment (field-independent basis, Debye-Ang**2):
  XXX=              9.5038  YYY=             17.7389  ZZZ=             -0.0996  XYY=              3.2783
  XXY=             34.7001  XXZ=             91.5152  XZZ=             23.2619  YZZ=             11.1139
  YYZ=              8.2324  XYZ=            -26.7612
 Hexadecapole moment (field-independent basis, Debye-Ang**3):
 XXXX=          -6606.4435 YYYY=          -1036.3324 ZZZZ=           -734.0831 XXXY=            186.2152
 XXXZ=            617.3988 YYYX=             20.8150 YYYZ=            -32.9973 ZZZX=             27.6801
 ZZZY=              4.3348 XXYY=          -1802.2064 XXZZ=          -1608.0841 YYZZ=           -297.7982
 XXYZ=            -79.4199 YYXZ=             62.1229 ZZXY=             43.8322
 N-N= 1.307508832272D+03 E-N=-4.763701941028D+03  KE= 9.160876604016D+02
 Calling FoFJK, ICntrl=      2127 FMM=F ISym2X=0 I1Cent= 0 IOpClX= 0 NMat=1 NMatS=1 NMatT=0.
 ***** Axes restored to original set *****
 -------------------------------------------------------------------
 Center     Atomic                   Forces (Hartrees/Bohr)
 Number     Number              X              Y              Z
 -------------------------------------------------------------------
      1        6           0.002730677    0.000822770    0.000343818
      2        7          -0.001325512   -0.000586609   -0.000195506
      3        6           0.001256273    0.001211504    0.000376820
      4        6          -0.003045648    0.000044163   -0.000271248
      5        6           0.002564037    0.008544172    0.002277443
      6        7          -0.000508559   -0.003798767   -0.000777578
      7        1          -0.000102432   -0.000325312   -0.000114287
      8        7          -0.002191625   -0.000014136   -0.000070957
      9        1           0.000111847    0.000189342    0.000019495
     10        1           0.000377517   -0.000080094   -0.000034684
     11        7          -0.004909753   -0.000571833   -0.000496502
     12        6           0.003830070   -0.006775579   -0.001423452
     13        7          -0.011576958    0.000369310    0.001096455
     14        1           0.000227087   -0.000075260   -0.000069948
     15        1           0.010001854    0.000907215   -0.000937556
     16        6          -0.000534535    0.000020306    0.000337828
     17        6          -0.003946164    0.002431964   -0.000609755
     18        1           0.000175877   -0.000538225    0.000048668
     19        1           0.000381665    0.000120711    0.000323660
     20        1          -0.000284444    0.000171058   -0.000215098
     21        6           0.011399184   -0.007023718   -0.002623024
     22        6           0.002513093   -0.000524823   -0.003286845
     23        7          -0.001568575    0.000482728    0.002659679
     24        1          -0.000246276    0.000022393   -0.000062832
     25        7          -0.006020852    0.003148532    0.005088158
     26        6           0.003254810   -0.001568121   -0.002336714
     27        1          -0.000220136   -0.000398445   -0.000825972
     28        1           0.000262046   -0.000321446   -0.000056634
     29        8          -0.001471400    0.000496929    0.002143507
     30        8          -0.001133167    0.003619270   -0.000306936
 -------------------------------------------------------------------
 Cartesian Forces:  Max     0.011576958 RMS     0.002985285

 GradGradGradGradGradGradGradGradGradGradGradGradGradGradGradGradGradGrad
 Berny optimization.
 Internal  Forces:  Max     0.012479121 RMS     0.001634387
 Search for a local minimum.
 Step number   1 out of a maximum of  159
 All quantities printed in internal units (Hartrees-Bohrs-Radians)
 Mixed Optimization -- RFO/linear search
 Second derivative matrix not updated -- first step.
     Eigenvalues ---    0.00230   0.00742   0.00932   0.01458   0.01466
     Eigenvalues ---    0.01666   0.01684   0.01777   0.01803   0.01827
     Eigenvalues ---    0.01882   0.01897   0.01955   0.02014   0.02036
     Eigenvalues ---    0.02116   0.02151   0.02169   0.02199   0.02290
     Eigenvalues ---    0.02290   0.02313   0.02316   0.02347   0.03707
     Eigenvalues ---    0.06491   0.07123   0.07301   0.16000   0.16000
     Eigenvalues ---    0.16000   0.16000   0.16000   0.16000   0.16000
     Eigenvalues ---    0.16000   0.16000   0.16000   0.16000   0.16000
     Eigenvalues ---    0.22354   0.22702   0.23162   0.23450   0.24555
     Eigenvalues ---    0.24748   0.25000   0.25000   0.25000   0.25000
     Eigenvalues ---    0.25000   0.25000   0.25000   0.32188   0.34119
     Eigenvalues ---    0.34120   0.34333   0.35456   0.35624   0.35680
     Eigenvalues ---    0.36312   0.38464   0.41615   0.42423   0.42815
     Eigenvalues ---    0.45070   0.45535   0.45918   0.46118   0.46155
     Eigenvalues ---    0.46432   0.46517   0.46575   0.47084   0.47418
     Eigenvalues ---    0.50600   0.52015   0.52399   0.54009   0.54024
     Eigenvalues ---    0.54683   0.57916   0.84123   0.857471000.00000
     Eigenvalues --- 1000.000001000.000001000.000001000.000001000.00000
     Eigenvalues --- 1000.000001000.000001000.000001000.000001000.00000
     Eigenvalues --- 1000.000001000.000001000.000001000.000001000.00000
     Eigenvalues --- 1000.000001000.000001000.000001000.000001000.00000
     Eigenvalues --- 1000.000001000.000001000.000001000.000001000.00000
     Eigenvalues --- 1000.000001000.000001000.000001000.000001000.00000
     Eigenvalues --- 1000.000001000.000001000.000001000.000001000.00000
     Eigenvalues --- 1000.000001000.000001000.000001000.000001000.00000
     Eigenvalues --- 1000.000001000.000001000.000001000.000001000.00000
     Eigenvalues --- 1000.000001000.000001000.000001000.000001000.00000
     Eigenvalues --- 1000.000001000.000001000.000001000.000001000.00000
     Eigenvalues --- 1000.000001000.000001000.000001000.000001000.00000
     Eigenvalues --- 1000.000001000.000001000.000001000.00000
 RFO step:  Lambda=-1.40785950D-03 EMin= 2.30000000D-03
 Linear search not attempted -- first point.
 Iteration  1 RMS(Cart)=  0.16912278 RMS(Int)=  0.00874691
 Iteration  2 RMS(Cart)=  0.06967586 RMS(Int)=  0.00089217
 Iteration  3 RMS(Cart)=  0.00181497 RMS(Int)=  0.00000845
 Iteration  4 RMS(Cart)=  0.00000104 RMS(Int)=  0.00000844
 Iteration  5 RMS(Cart)=  0.00000000 RMS(Int)=  0.00000844
 Variable       Old X    -DE/DX   Delta X   Delta X   Delta X     New X
                                 (Linear)    (Quad)   (Total)
    R1        2.56896   0.00001   0.00000  -0.00021  -0.00021   2.56875
    R2        2.66604  -0.00094   0.00000  -0.00213  -0.00213   2.66391
    R3        2.56010   0.00167   0.00000   0.00308   0.00308   2.56318
    R4        2.56115   0.00069   0.00000   0.00106   0.00106   2.56221
    R5        2.55231  -0.00053   0.00000  -0.00099  -0.00099   2.55132
    R6        2.04585   0.00032   0.00000   0.00088   0.00088   2.04673
    R7        2.65438   0.00230   0.00000   0.00564   0.00564   2.66002
    R8        2.64485  -0.00252   0.00000  -0.00515  -0.00515   2.63971
    R9        2.55091   0.00324   0.00000   0.00610   0.00610   2.55702
   R10        2.61591  -0.00260   0.00000  -0.00557  -0.00558   2.61033
   R11        1.90253  -0.00021   0.00000  -0.00045  -0.00045   1.90208
   R12        1.90188  -0.00019   0.00000  -0.00042  -0.00042   1.90147
   R13        2.50621   0.00371   0.00000   0.00609   0.00610   2.51231
   R14        2.63118  -0.00387   0.00000  -0.00858  -0.00858   2.62260
   R15        2.03596  -0.00001   0.00000  -0.00003  -0.00003   2.03593
   R16        1.90347   0.01248   0.00000   0.02679   0.02679   1.93027
   R17        3.34143   0.00252   0.00000   0.03794   0.03794   3.37936
   R18        2.83801   0.00057   0.00000   0.00175   0.00175   2.83977
   R19        2.07128   0.00008   0.00000   0.00023   0.00023   2.07152
   R20        2.07129   0.00016   0.00000   0.00047   0.00047   2.07176
   R21        2.06772  -0.00039   0.00000  -0.00113  -0.00113   2.06659
   R22        2.76856  -0.00307   0.00000  -0.00865  -0.00864   2.75991
   R23        2.56400   0.00150   0.00000   0.00281   0.00281   2.56680
   R24        2.66490  -0.00607   0.00000  -0.01396  -0.01395   2.65095
   R25        2.35766   0.00478   0.00000   0.00567   0.00567   2.36333
   R26        2.62178  -0.00257   0.00000  -0.00516  -0.00517   2.61661
   R27        2.04674  -0.00019   0.00000  -0.00052  -0.00052   2.04622
   R28        2.63270   0.00002   0.00000   0.00024   0.00023   2.63293
   R29        1.90698   0.00038   0.00000   0.00082   0.00082   1.90780
   R30        2.62636   0.00170   0.00000   0.00356   0.00356   2.62992
   R31        1.91360   0.00055   0.00000   0.00121   0.00121   1.91481
   R32        2.34957  -0.00256   0.00000  -0.00298  -0.00298   2.34660
    A1        2.06730   0.00052   0.00000   0.00166   0.00166   2.06896
    A2        2.07222  -0.00035   0.00000  -0.00117  -0.00117   2.07105
    A3        2.14366  -0.00018   0.00000  -0.00049  -0.00049   2.14317
    A4        2.07620  -0.00045   0.00000  -0.00311  -0.00312   2.07308
    A5        2.22738   0.00072   0.00000   0.00280   0.00280   2.23018
    A6        2.02332  -0.00053   0.00000  -0.00249  -0.00249   2.02083
    A7        2.03248  -0.00018   0.00000  -0.00031  -0.00031   2.03217
    A8        2.03806   0.00114   0.00000   0.00457   0.00457   2.04263
    A9        2.31005  -0.00013   0.00000  -0.00133  -0.00133   2.30872
   A10        1.93507  -0.00100   0.00000  -0.00324  -0.00324   1.93183
   A11        2.20081  -0.00246   0.00000  -0.00884  -0.00883   2.19199
   A12        1.83232   0.00258   0.00000   0.00987   0.00986   1.84218
   A13        2.25005  -0.00012   0.00000  -0.00104  -0.00103   2.24902
   A14        1.95661   0.00053   0.00000   0.00291   0.00292   1.95952
   A15        2.07335   0.00027   0.00000   0.00166   0.00166   2.07501
   A16        2.10514  -0.00045   0.00000  -0.00279  -0.00279   2.10234
   A17        2.10470   0.00018   0.00000   0.00114   0.00114   2.10583
   A18        1.82440  -0.00246   0.00000  -0.00889  -0.00887   1.81552
   A19        1.96437   0.00347   0.00000   0.01500   0.01500   1.97937
   A20        2.18494  -0.00149   0.00000  -0.00599  -0.00600   2.17895
   A21        2.13388  -0.00198   0.00000  -0.00901  -0.00902   2.12486
   A22        1.86862  -0.00259   0.00000  -0.01274  -0.01275   1.85587
   A23        2.18835   0.00163   0.00000   0.00845   0.00845   2.19680
   A24        2.22622   0.00096   0.00000   0.00429   0.00429   2.23051
   A25        2.97765   0.00244   0.00000   0.00969   0.00969   2.98734
   A26        1.93519  -0.00005   0.00000   0.00011   0.00010   1.93529
   A27        1.93517   0.00022   0.00000   0.00221   0.00221   1.93738
   A28        1.94402  -0.00008   0.00000  -0.00178  -0.00178   1.94223
   A29        1.85746   0.00035   0.00000   0.00472   0.00472   1.86218
   A30        1.89463  -0.00020   0.00000  -0.00283  -0.00283   1.89180
   A31        1.89461  -0.00023   0.00000  -0.00230  -0.00230   1.89231
   A32        2.05666   0.00105   0.00000   0.00433   0.00431   2.06097
   A33        2.16070   0.00031   0.00000   0.00136   0.00134   2.16204
   A34        2.06582  -0.00136   0.00000  -0.00569  -0.00568   2.06014
   A35        2.00703   0.00278   0.00000   0.01037   0.01039   2.01742
   A36        2.17726  -0.00010   0.00000  -0.00005  -0.00007   2.17720
   A37        2.09889  -0.00268   0.00000  -0.01032  -0.01033   2.08856
   A38        2.13592  -0.00001   0.00000   0.00048   0.00047   2.13639
   A39        2.13323  -0.00014   0.00000  -0.00112  -0.00112   2.13211
   A40        2.01403   0.00015   0.00000   0.00064   0.00064   2.01467
   A41        2.15925  -0.00011   0.00000   0.00043   0.00041   2.15966
   A42        2.11021   0.00000   0.00000  -0.00053  -0.00054   2.10967
   A43        2.01372   0.00011   0.00000   0.00011   0.00010   2.01383
   A44        2.22805  -0.00096   0.00000  -0.00469  -0.00469   2.22336
   A45        2.03021   0.00091   0.00000   0.00497   0.00495   2.03516
   A46        2.02492   0.00006   0.00000  -0.00029  -0.00032   2.02460
   A47        1.97029  -0.00034   0.00000  -0.00090  -0.00090   1.96939
   A48        2.14777   0.00094   0.00000   0.00351   0.00351   2.15128
   A49        2.16512  -0.00060   0.00000  -0.00261  -0.00261   2.16251
   A50        2.68527  -0.00190   0.00000  -0.01180  -0.01180   2.67348
    D1        0.00000  -0.00001   0.00000  -0.00036  -0.00036  -0.00035
    D2        3.14159   0.00000   0.00000  -0.00016  -0.00016   3.14143
    D3        0.00000   0.00003   0.00000   0.00158   0.00158   0.00158
    D4        3.14159   0.00004   0.00000   0.00201   0.00202  -3.13958
    D5       -3.14159   0.00003   0.00000   0.00137   0.00138  -3.14022
    D6        0.00000   0.00004   0.00000   0.00180   0.00181   0.00181
    D7        0.00000  -0.00003   0.00000  -0.00141  -0.00142  -0.00141
    D8       -3.14159   0.00003   0.00000   0.00136   0.00136  -3.14023
    D9        3.14159  -0.00003   0.00000  -0.00121  -0.00121   3.14038
   D10        0.00000   0.00004   0.00000   0.00157   0.00157   0.00157
   D11        0.00000   0.00000   0.00000  -0.00016  -0.00017  -0.00016
   D12        3.14159   0.00001   0.00000   0.00028   0.00028  -3.14132
   D13        0.00000  -0.00002   0.00000  -0.00060  -0.00061  -0.00061
   D14       -3.14159  -0.00003   0.00000  -0.00105  -0.00105   3.14054
   D15        0.00000  -0.00006   0.00000  -0.00259  -0.00259  -0.00259
   D16       -3.14159  -0.00003   0.00000  -0.00139  -0.00139   3.14020
   D17        3.14159  -0.00006   0.00000  -0.00293  -0.00293   3.13866
   D18        0.00000  -0.00004   0.00000  -0.00173  -0.00174  -0.00173
   D19        3.14159  -0.00001   0.00000  -0.00038  -0.00038   3.14121
   D20        0.00000   0.00000   0.00000   0.00003   0.00003   0.00003
   D21        0.00000   0.00005   0.00000   0.00203   0.00203   0.00203
   D22       -3.14159   0.00002   0.00000   0.00054   0.00055  -3.14105
   D23        0.00000   0.00006   0.00000   0.00267   0.00266   0.00266
   D24       -3.14159   0.00011   0.00000   0.00572   0.00572  -3.13587
   D25        3.14159   0.00009   0.00000   0.00391   0.00391  -3.13769
   D26        0.00000   0.00014   0.00000   0.00697   0.00697   0.00697
   D27        0.00000   0.00004   0.00000   0.00175   0.00176   0.00176
   D28       -3.14159  -0.00008   0.00000  -0.00344  -0.00343   3.13816
   D29        0.00000  -0.00006   0.00000  -0.00289  -0.00289  -0.00289
   D30        3.14159  -0.00012   0.00000  -0.00604  -0.00603   3.13556
   D31        3.14159   0.00005   0.00000   0.00212   0.00212  -3.13948
   D32       -0.00001  -0.00001   0.00000  -0.00103  -0.00102  -0.00103
   D33        1.28860   0.00033   0.00000   0.03222   0.03221   1.32081
   D34       -1.85299   0.00040   0.00000   0.03591   0.03592  -1.81706
   D35       -1.51941   0.00097   0.00000   0.26040   0.26040  -1.25901
   D36        1.03003   0.00025   0.00000   0.00163   0.00162   1.03165
   D37       -2.11140   0.00038   0.00000   0.00997   0.00998  -2.10142
   D38       -1.02935  -0.00030   0.00000  -0.00572  -0.00573  -1.03508
   D39        2.11241  -0.00017   0.00000   0.00261   0.00262   2.11503
   D40       -3.14123  -0.00010   0.00000  -0.00310  -0.00311   3.13884
   D41        0.00052   0.00003   0.00000   0.00523   0.00524   0.00577
   D42       -3.14158   0.00014   0.00000   0.00914   0.00913  -3.13245
   D43        0.00022   0.00023   0.00000   0.01404   0.01405   0.01427
   D44       -0.00014   0.00001   0.00000   0.00127   0.00127   0.00113
   D45       -3.14152   0.00010   0.00000   0.00617   0.00619  -3.13533
   D46        3.14139  -0.00012   0.00000  -0.00720  -0.00717   3.13422
   D47       -0.00005  -0.00004   0.00000  -0.00330  -0.00329  -0.00334
   D48       -0.00004   0.00002   0.00000   0.00118   0.00118   0.00114
   D49       -3.14148   0.00010   0.00000   0.00507   0.00506  -3.13642
   D50        0.00018  -0.00001   0.00000  -0.00165  -0.00165  -0.00147
   D51       -3.14147  -0.00025   0.00000  -0.01414  -0.01416   3.12756
   D52        3.14158  -0.00010   0.00000  -0.00631  -0.00630   3.13528
   D53       -0.00007  -0.00033   0.00000  -0.01880  -0.01881  -0.01888
   D54       -1.33342   0.00054   0.00000   0.01254   0.01256  -1.32085
   D55        1.80839   0.00063   0.00000   0.01769   0.01767   1.82606
   D56        0.00022  -0.00005   0.00000  -0.00367  -0.00367  -0.00345
   D57        3.14153   0.00008   0.00000   0.00397   0.00397  -3.13769
   D58       -3.14152  -0.00013   0.00000  -0.00732  -0.00731   3.13436
   D59       -0.00021   0.00000   0.00000   0.00033   0.00033   0.00012
   D60       -0.00017   0.00005   0.00000   0.00316   0.00315   0.00298
   D61        3.14138   0.00001   0.00000   0.00115   0.00114  -3.14066
   D62       -3.14150  -0.00008   0.00000  -0.00410  -0.00410   3.13758
   D63        0.00006  -0.00012   0.00000  -0.00611  -0.00611  -0.00606
   D64       -0.00003  -0.00002   0.00000  -0.00048  -0.00048  -0.00051
   D65       -3.14159   0.00003   0.00000   0.00155   0.00154  -3.14005
   D66       -3.14157   0.00022   0.00000   0.01198   0.01196  -3.12960
   D67        0.00006   0.00026   0.00000   0.01400   0.01399   0.01405
         Item               Value     Threshold  Converged?
 Maximum Force            0.012479     0.000450     NO 
 RMS     Force            0.001634     0.000300     NO 
 Maximum Displacement     1.150382     0.001800     NO 
 RMS     Displacement     0.236605     0.001200     NO 
 Predicted change in Energy=-7.580126D-04
 GradGradGradGradGradGradGradGradGradGradGradGradGradGradGradGradGradGrad

                          Input orientation:                          
 ---------------------------------------------------------------------
 Center     Atomic      Atomic             Coordinates (Angstroms)
 Number     Number       Type             X           Y           Z
 ---------------------------------------------------------------------
      1          6           0       -1.285612   -0.454165   -0.132576
      2          7           0       -0.936491   -1.766011   -0.202859
      3          6           0        0.372736   -2.100012   -0.090031
      4          6           0       -0.269082    0.504230    0.055425
      5          6           0        1.050842    0.025584    0.155942
      6          7           0        1.424700   -1.273204    0.090347
      7          1           0        0.596216   -3.157905   -0.153198
      8          7           0       -2.595968   -0.122680   -0.245923
      9          1           0       -3.273052   -0.855279   -0.379980
     10          1           0       -2.884383    0.840170   -0.198982
     11          7           0       -0.299163    1.896178    0.168680
     12          6           0        0.976247    2.233648    0.332695
     13          7           0        1.838841    1.146460    0.331309
     14          1           0        1.335638    3.242240    0.452279
     15          1           0        2.855023    1.153432    0.434709
     16          6           0        5.679850   -0.451000    2.543703
     17          6           0        6.387281   -0.273911    1.229775
     18          1           0        4.695943   -0.912051    2.398748
     19          1           0        5.505933    0.516142    3.029838
     20          1           0        6.259103   -1.080856    3.224649
     21          6           0        5.740606    0.541523    0.205136
     22          6           0        7.588515   -0.835239    0.934969
     23          7           0        8.209517   -0.658616   -0.289947
     24          1           0        8.124169   -1.455391    1.642759
     25          7           0        6.441006    0.662472   -1.004295
     26          6           0        7.670926    0.097791   -1.328703
     27          1           0        6.000313    1.214668   -1.730647
     28          1           0        9.101260   -1.089573   -0.485639
     29          8           0        8.235330    0.249490   -2.424338
     30          8           0        4.640694    1.120285    0.343991
 ---------------------------------------------------------------------
                    Distance matrix (angstroms):
                    1          2          3          4          5
     1  C    0.000000
     2  N    1.359326   0.000000
     3  C    2.336822   1.355862   0.000000
     4  C    1.409680   2.380366   2.686105   0.000000
     5  C    2.402586   2.699638   2.244657   1.407624   0.000000
     6  N    2.840125   2.429825   1.350102   2.455481   1.353115
     7  H    3.294224   2.070996   1.083084   3.768752   3.230611
     8  N    1.356379   2.335863   3.570342   2.428626   3.671880
     9  H    2.042553   2.514026   3.863315   3.325910   4.445132
    10  H    2.058101   3.253687   4.389232   2.649033   4.034293
    11  N    2.566699   3.735754   4.060531   1.396872   2.306903
    12  C    3.543561   4.465721   4.395854   2.149096   2.216384
    13  N    3.541101   4.058361   3.587000   2.220791   1.381325
    14  H    4.569071   5.538443   5.455358   3.198330   3.242807
    15  H    4.477838   4.827548   4.125772   3.213308   2.145884
    16  C    7.461913   7.283463   6.149900   6.518726   5.230321
    17  C    7.794984   7.610285   6.422717   6.803806   5.451642
    18  H    6.511241   6.262740   5.127903   5.669963   4.381335
    19  H    7.554299   7.560647   6.551912   6.496004   5.324261
    20  H    8.281692   7.999614   6.831918   7.427899   6.145499
    21  C    7.104448   7.076355   5.989897   6.011668   4.718315
    22  C    8.946228   8.650822   7.397145   8.019327   6.639960
    23  N    9.498634   9.213218   7.970742   8.564937   7.205108
    24  H    9.627993   9.251938   7.968865   8.763926   7.378066
    25  N    7.855405   7.808156   6.729867   6.795096   5.550283
    26  C    9.052897   8.878565   7.721932   8.069989   6.784902
    27  H    7.643529   7.703106   6.734118   6.557445   5.428665
    28  H   10.412276  10.064491   8.795716   9.520308   8.152572
    29  O    9.818127   9.649845   8.531678   8.862231   7.637070
    30  O    6.150375   6.303550   5.364155   4.956682   3.757761
                    6          7          8          9         10
     6  N    0.000000
     7  H    2.073113   0.000000
     8  N    4.195540   4.405817   0.000000
     9  H    4.739699   4.508299   1.006537   0.000000
    10  H    4.808144   5.301063   1.006213   1.748819   0.000000
    11  N    3.608715   5.142865   3.085935   4.088466   2.816681
    12  C    3.543706   5.426726   4.318310   5.301502   4.138711
    13  N    2.466647   4.506264   4.648811   5.535733   4.762758
    14  H    4.530801   6.471104   5.221847   6.222727   4.899250
    15  H    2.837775   4.902597   5.639594   6.500149   5.782774
    16  C    4.980089   6.359556   8.739507   9.426868   9.084907
    17  C    5.188843   6.615623   9.104906   9.810777   9.447025
    18  H    4.019972   5.325790   7.796753   8.439753   8.202427
    19  H    5.338429   6.909099   8.762391   9.517260   8.995981
    20  H    5.764747   6.913196   9.559041  10.193441   9.950625
    21  C    4.683317   6.346567   8.375147   9.139992   8.639614
    22  C    6.236812   7.447894  10.277448  10.940893  10.666510
    23  N    6.823202   8.014206  10.818857  11.484607  11.195055
    24  H    6.879394   7.924272  10.966521  11.590870  11.395167
    25  N    5.487113   7.034288   9.102664   9.851714   9.361783
    26  C    6.550471   7.876096  10.326187  11.026291  10.641520
    27  H    5.517405   7.128253   8.825471   9.597098   9.023528
    28  H    7.700328   8.759240  11.739569  12.376981  12.143381
    29  O    7.418013   8.667437  11.054456  11.740646  11.355576
    30  O    4.016932   5.908291   7.366291   8.188673   7.549839
                   11         12         13         14         15
    11  N    0.000000
    12  C    1.329458   0.000000
    13  N    2.271473   1.387822   0.000000
    14  H    2.136559   1.077366   2.158736   0.000000
    15  H    3.251359   2.169579   1.021452   2.583013   0.000000
    16  C    6.848254   5.849767   4.711679   6.073406   3.873204
    17  C    7.109413   6.030911   4.849020   6.203782   3.891823
    18  H    6.149019   5.291515   4.083479   5.686697   3.393031
    19  H    6.617391   5.544588   4.596403   5.609526   3.764062
    20  H    7.823844   6.874438   5.733330   7.114472   4.935947
    21  C    6.189930   5.057536   3.950397   5.172881   2.958670
    22  C    8.382321   7.314567   6.111488   7.480461   5.158587
    23  N    8.895783   7.814926   6.650547   7.938375   5.699058
    24  H    9.184685   8.149727   6.927833   8.340811   6.002436
    25  N    6.951819   5.841209   4.816430   5.902677   3.895003
    26  C    8.306544   7.220862   6.153743   7.293513   5.236117
    27  H    6.614779   5.526024   4.644799   5.534926   3.819079
    28  H    9.884877   8.816422   7.642642   8.941430   6.700268
    29  O    9.070441   8.014511   7.022336   8.052156   6.159461
    30  O    5.003493   3.829866   2.802004   3.929099   1.788282
                   16         17         18         19         20
    16  C    0.000000
    17  C    1.502739   0.000000
    18  H    1.096200   2.152753   0.000000
    19  H    1.096329   2.154340   1.759004   0.000000
    20  H    1.093590   2.155716   1.775973   1.776406   0.000000
    21  C    2.541199   1.460482   2.831277   2.834547   3.466758
    22  C    2.525602   1.358294   3.242765   3.248362   2.659003
    23  N    3.804194   2.403768   4.431536   4.439639   4.041632
    24  H    2.791988   2.140848   3.552390   3.558945   2.474090
    25  N    3.795717   2.422967   4.135827   4.143670   4.577800
    26  C    4.388745   2.886471   4.874853   4.884576   4.910750
    27  H    4.598611   3.336123   4.824544   4.836793   5.467300
    28  H    4.614188   3.312647   5.268588   5.278567   4.673774
    29  O    5.630505   4.128168   6.094144   6.104813   6.130770
    30  O    2.896121   2.403947   2.890582   2.885723   3.970196
                   21         22         23         24         25
    21  C    0.000000
    22  C    2.417209   0.000000
    23  N    2.789438   1.384651   0.000000
    24  H    3.425755   1.082811   2.092244   0.000000
    25  N    1.402823   2.705672   2.320172   3.784874   0.000000
    26  C    2.505134   2.449805   1.393286   3.383399   1.391693
    27  H    2.065873   3.718873   3.235027   4.797901   1.013272
    28  H    3.798900   2.090744   1.009566   2.370360   3.227323
    29  O    3.636353   3.588864   2.319687   4.411377   2.325225
    30  O    1.250621   3.586499   4.037680   4.522775   2.295341
                   26         27         28         29         30
    26  C    0.000000
    27  H    2.049372   0.000000
    28  H    2.041187   4.058996   0.000000
    29  O    1.241765   2.531418   2.510275   0.000000
    30  O    3.609114   2.482256   5.046623   4.619884   0.000000
 Stoichiometry    C10H11N7O2
 Framework group  C1[X(C10H11N7O2)]
 Deg. of freedom    84
 Full point group                 C1      NOp   1
 Largest Abelian subgroup         C1      NOp   1
 Largest concise Abelian subgroup C1      NOp   1
                         Standard orientation:                         
 ---------------------------------------------------------------------
 Center     Atomic      Atomic             Coordinates (Angstroms)
 Number     Number       Type             X           Y           Z
 ---------------------------------------------------------------------
      1          6           0        4.539648    0.350767   -0.449330
[...]
                 (A) (A) (A) (A) (A)
 The electronic state is 1-A.
 Alpha  occ. eigenvalues --  -19.15312 -19.14708 -14.42151 -14.41056 -14.37421
 Alpha  occ. eigenvalues --  -14.34679 -14.32772 -14.32580 -14.31951 -10.36413
 Alpha  occ. eigenvalues --  -10.33554 -10.27967 -10.27301 -10.25235 -10.25057
 Alpha  occ. eigenvalues --  -10.24393 -10.23040 -10.20721 -10.18519  -1.10120
 Alpha  occ. eigenvalues --   -1.07132  -1.02947  -1.00237  -0.97918  -0.95284
 Alpha  occ. eigenvalues --   -0.93479  -0.87972  -0.85654  -0.83738  -0.76326
 Alpha  occ. eigenvalues --   -0.73048  -0.70107  -0.68935  -0.66224  -0.64556
 Alpha  occ. eigenvalues --   -0.61387  -0.59002  -0.58771  -0.57786  -0.54761
 Alpha  occ. eigenvalues --   -0.54490  -0.51186  -0.50058  -0.49543  -0.49171
 Alpha  occ. eigenvalues --   -0.45991  -0.45477  -0.44500  -0.44255  -0.43517
 Alpha  occ. eigenvalues --   -0.43474  -0.41921  -0.41530  -0.41042  -0.39506
 Alpha  occ. eigenvalues --   -0.39219  -0.36973  -0.34948  -0.30851  -0.30314
 Alpha  occ. eigenvalues --   -0.29792  -0.28669  -0.28015  -0.26549  -0.25854
 Alpha  occ. eigenvalues --   -0.25532  -0.23416  -0.21304
 Alpha virt. eigenvalues --   -0.06243  -0.01511  -0.01275   0.01134   0.04587
 Alpha virt. eigenvalues --    0.04854   0.08489   0.09033   0.09223   0.10252
 Alpha virt. eigenvalues --    0.12663   0.13749   0.14227   0.15536   0.15899
 Alpha virt. eigenvalues --    0.16971   0.17320   0.18689   0.19210   0.20117
 Alpha virt. eigenvalues --    0.21517   0.21833   0.24626   0.25857   0.26660
 Alpha virt. eigenvalues --    0.28120   0.29602   0.31101   0.32170   0.33247
 Alpha virt. eigenvalues --    0.34588   0.35912   0.36982   0.37918   0.40164
 Alpha virt. eigenvalues --    0.43830   0.46205   0.46840   0.47884   0.50804
 Alpha virt. eigenvalues --    0.51243   0.53546   0.54812   0.55318   0.55713
 Alpha virt. eigenvalues --    0.57195   0.57895   0.59974   0.60378   0.60703
 Alpha virt. eigenvalues --    0.61246   0.62619   0.63006   0.63601   0.63817
 Alpha virt. eigenvalues --    0.64178   0.65652   0.66391   0.67541   0.68801
 Alpha virt. eigenvalues --    0.70254   0.70517   0.70867   0.71540   0.72548
 Alpha virt. eigenvalues --    0.73659   0.73671   0.75321   0.75876   0.79057
 Alpha virt. eigenvalues --    0.80913   0.81972   0.83268   0.83713   0.83931
 Alpha virt. eigenvalues --    0.84208   0.85547   0.85682   0.86034   0.88149
 Alpha virt. eigenvalues --    0.89633   0.90279   0.91238   0.91624   0.92166
 Alpha virt. eigenvalues --    0.94620   0.95025   0.95534   0.96737   0.97571
 Alpha virt. eigenvalues --    0.97996   1.02246   1.02833   1.04518   1.05138
 Alpha virt. eigenvalues --    1.06826   1.08416   1.08486   1.11566   1.12777
 Alpha virt. eigenvalues --    1.13631   1.15942   1.19220   1.23418   1.26898
 Alpha virt. eigenvalues --    1.29603   1.29911   1.36207   1.40215   1.41860
 Alpha virt. eigenvalues --    1.42447   1.44613   1.46181   1.53701   1.54074
 Alpha virt. eigenvalues --    1.59927   1.62758   1.65502   1.69508   1.72607
 Alpha virt. eigenvalues --    1.86910   1.92935   2.00004   2.01604   2.07320
          Condensed to atoms (all electrons):
              1          2          3          4          5          6
     1  C    4.939690   0.486602  -0.054202   0.176195  -0.084697  -0.038996
     2  N    0.486602   6.945408   0.380902  -0.087113  -0.053999  -0.078090
     3  C   -0.054202   0.380902   4.884492  -0.054804  -0.050688   0.373530
     4  C    0.176195  -0.087113  -0.054804   5.542926   0.295451  -0.038577
     5  C   -0.084697  -0.053999  -0.050688   0.295451   5.167018   0.318195
     6  N   -0.038996  -0.078090   0.373530  -0.038577   0.318195   6.941108
     7  H    0.006326  -0.068390   0.398927  -0.001348   0.007842  -0.071427
     8  N    0.195330  -0.109064   0.003829  -0.105703   0.007366  -0.000555
     9  H   -0.003559   0.005398   0.000401   0.009960  -0.000095   0.000065
    10  H   -0.027097   0.002744  -0.000179  -0.003867   0.000652  -0.000018
    11  N   -0.026883   0.003317   0.000722   0.374482  -0.108744   0.005894
    12  C    0.003886  -0.000415  -0.000399  -0.086758  -0.112027   0.003249
    13  N    0.010697   0.000314   0.004907  -0.124544   0.197701  -0.060918
    14  H   -0.000197   0.000002   0.000003   0.005515   0.003714  -0.000056
    15  H    0.000039   0.000022   0.000077   0.006308  -0.007764   0.001432
    16  C    0.000000  -0.000009  -0.000181  -0.000068  -0.001122  -0.012515
    17  C    0.000000   0.000000   0.000004   0.000000   0.000030   0.000279
    18  H   -0.000001   0.000098   0.000679   0.000429   0.002391   0.034951
    19  H    0.000000   0.000000   0.000000   0.000005   0.000097   0.000178
    20  H    0.000000   0.000000   0.000006   0.000000   0.000010   0.000189
    21  C    0.000000   0.000000   0.000001   0.000004   0.000061   0.000087
    22  C    0.000000   0.000000   0.000000   0.000000   0.000000   0.000001
    23  N    0.000000   0.000000   0.000000   0.000000   0.000000   0.000000
    24  H    0.000000   0.000000   0.000000   0.000000   0.000000   0.000000
    25  N    0.000000   0.000000   0.000000   0.000000  -0.000001   0.000000
    26  C    0.000000   0.000000   0.000000   0.000000   0.000000   0.000000
    27  H    0.000000   0.000000   0.000000   0.000000   0.000000   0.000000
    28  H    0.000000   0.000000   0.000000   0.000000   0.000000   0.000000
    29  O    0.000000   0.000000   0.000000   0.000000   0.000000   0.000000
    30  O    0.000000   0.000000   0.000000   0.000006  -0.000382  -0.000074
              7          8          9         10         11         12
     1  C    0.006326   0.195330  -0.003559  -0.027097  -0.026883   0.003886
     2  N   -0.068390  -0.109064   0.005398   0.002744   0.003317  -0.000415
     3  C    0.398927   0.003829   0.000401  -0.000179   0.000722  -0.000399
     4  C   -0.001348  -0.105703   0.009960  -0.003867   0.374482  -0.086758
     5  C    0.007842   0.007366  -0.000095   0.000652  -0.108744  -0.112027
     6  N   -0.071427  -0.000555   0.000065  -0.000018   0.005894   0.003249
     7  H    0.582842  -0.000040  -0.000038   0.000003   0.000009   0.000001
     8  N   -0.000040   7.135905   0.293820   0.329944   0.001085  -0.000015
     9  H   -0.000038   0.293820   0.385058  -0.022036  -0.000048   0.000007
    10  H    0.000003   0.329944  -0.022036   0.369015   0.006549  -0.000154
    11  N    0.000009   0.001085  -0.000048   0.006549   6.802794   0.486004
    12  C    0.000001  -0.000015   0.000007  -0.000154   0.486004   4.807509
    13  N   -0.000056  -0.000135   0.000002   0.000032  -0.094986   0.264949
    14  H    0.000000  -0.000002   0.000000  -0.000006  -0.034195   0.378632
    15  H   -0.000005   0.000000   0.000000   0.000000   0.002103  -0.004791
    16  C    0.000116   0.000000   0.000000   0.000000   0.000001   0.000016
    17  C   -0.000001   0.000000   0.000000   0.000000   0.000000  -0.000004
    18  H   -0.000365   0.000000   0.000000   0.000000  -0.000007  -0.000005
    19  H   -0.000001   0.000000   0.000000   0.000000   0.000000  -0.000004
    20  H   -0.000003   0.000000   0.000000   0.000000   0.000000   0.000000
    21  C    0.000000   0.000000   0.000000   0.000000   0.000000   0.000005
    22  C    0.000000   0.000000   0.000000   0.000000   0.000000   0.000000
    23  N    0.000000   0.000000   0.000000   0.000000   0.000000   0.000000
    24  H    0.000000   0.000000   0.000000   0.000000   0.000000   0.000000
    25  N    0.000000   0.000000   0.000000   0.000000   0.000000   0.000000
    26  C    0.000000   0.000000   0.000000   0.000000   0.000000   0.000000
    27  H    0.000000   0.000000   0.000000   0.000000   0.000000   0.000000
    28  H    0.000000   0.000000   0.000000   0.000000   0.000000   0.000000
    29  O    0.000000   0.000000   0.000000   0.000000   0.000000   0.000000
    30  O    0.000000   0.000000   0.000000   0.000000  -0.000006   0.000072
             13         14         15         16         17         18
     1  C    0.010697  -0.000197   0.000039   0.000000   0.000000  -0.000001
     2  N    0.000314   0.000002   0.000022  -0.000009   0.000000   0.000098
     3  C    0.004907   0.000003   0.000077  -0.000181   0.000004   0.000679
     4  C   -0.124544   0.005515   0.006308  -0.000068   0.000000   0.000429
     5  C    0.197701   0.003714  -0.007764  -0.001122   0.000030   0.002391
     6  N   -0.060918  -0.000056   0.001432  -0.012515   0.000279   0.034951
     7  H   -0.000056   0.000000  -0.000005   0.000116  -0.000001  -0.000365
     8  N   -0.000135  -0.000002   0.000000   0.000000   0.000000   0.000000
     9  H    0.000002   0.000000   0.000000   0.000000   0.000000   0.000000
    10  H    0.000032  -0.000006   0.000000   0.000000   0.000000   0.000000
    11  N   -0.094986  -0.034195   0.002103   0.000001   0.000000  -0.000007
    12  C    0.264949   0.378632  -0.004791   0.000016  -0.000004  -0.000005
    13  N    7.382953  -0.055664   0.243515   0.000848   0.000126  -0.001948
    14  H   -0.055664   0.529626   0.000548   0.000000   0.000000   0.000000
    15  H    0.243515   0.000548   0.295170   0.000816  -0.001636   0.000860
    16  C    0.000848   0.000000   0.000816   5.181635   0.331369   0.343434
    17  C    0.000126   0.000000  -0.001636   0.331369   5.281022  -0.025994
    18  H   -0.001948   0.000000   0.000860   0.343434  -0.025994   0.469838
    19  H    0.000038   0.000000   0.000205   0.368388  -0.035733  -0.027115
    20  H    0.000000   0.000000   0.000008   0.357805  -0.037677  -0.022414
    21  C    0.001003   0.000002  -0.003255  -0.044352   0.199699  -0.003302
    22  C   -0.000001   0.000000  -0.000004  -0.042688   0.531020  -0.000066
    23  N    0.000000   0.000000   0.000001   0.004461  -0.029261  -0.000064
    24  H    0.000000   0.000000   0.000000  -0.003945  -0.015667   0.000090
    25  N   -0.000041   0.000000   0.000608   0.004680  -0.159372  -0.000011
    26  C    0.000000   0.000000  -0.000002   0.000341  -0.002766   0.000001
    27  H   -0.000004   0.000000   0.000039  -0.000088   0.007005   0.000000
    28  H    0.000000   0.000000   0.000000  -0.000085   0.002502   0.000001
    29  O    0.000000   0.000000   0.000000   0.000001   0.000029   0.000000
    30  O   -0.026429  -0.000004   0.072840   0.003290  -0.107932   0.000636
             19         20         21         22         23         24
     1  C    0.000000   0.000000   0.000000   0.000000   0.000000   0.000000
     2  N    0.000000   0.000000   0.000000   0.000000   0.000000   0.000000
     3  C    0.000000   0.000006   0.000001   0.000000   0.000000   0.000000
     4  C    0.000005   0.000000   0.000004   0.000000   0.000000   0.000000
     5  C    0.000097   0.000010   0.000061   0.000000   0.000000   0.000000
     6  N    0.000178   0.000189   0.000087   0.000001   0.000000   0.000000
     7  H   -0.000001  -0.000003   0.000000   0.000000   0.000000   0.000000
     8  N    0.000000   0.000000   0.000000   0.000000   0.000000   0.000000
     9  H    0.000000   0.000000   0.000000   0.000000   0.000000   0.000000
    10  H    0.000000   0.000000   0.000000   0.000000   0.000000   0.000000
    11  N    0.000000   0.000000   0.000000   0.000000   0.000000   0.000000
    12  C   -0.000004   0.000000   0.000005   0.000000   0.000000   0.000000
    13  N    0.000038   0.000000   0.001003  -0.000001   0.000000   0.000000
    14  H    0.000000   0.000000   0.000002   0.000000   0.000000   0.000000
    15  H    0.000205   0.000008  -0.003255  -0.000004   0.000001   0.000000
    16  C    0.368388   0.357805  -0.044352  -0.042688   0.004461  -0.003945
    17  C   -0.035733  -0.037677   0.199699   0.531020  -0.029261  -0.015667
    18  H   -0.027115  -0.022414  -0.003302  -0.000066  -0.000064   0.000090
    19  H    0.564188  -0.030112  -0.005006   0.000850  -0.000096   0.000084
    20  H   -0.030112   0.593401   0.006750  -0.005607   0.000167   0.004522
    21  C   -0.005006   0.006750   4.768469  -0.034916  -0.013383   0.003686
    22  C    0.000850  -0.005607  -0.034916   4.933110   0.178624   0.362454
    23  N   -0.000096   0.000167  -0.013383   0.178624   7.506745  -0.048495
    24  H    0.000084   0.004522   0.003686   0.362454  -0.048495   0.517294
    25  N    0.000073  -0.000086   0.054216   0.004412  -0.183953  -0.000182
    26  C   -0.000006  -0.000020   0.001296  -0.028573   0.067894   0.002035
    27  H    0.000000   0.000002  -0.008539  -0.000765   0.005152   0.000017
    28  H    0.000002  -0.000005  -0.000002  -0.018596   0.310976  -0.003958
    29  O    0.000000   0.000000  -0.000016   0.001134  -0.111901  -0.000068
    30  O    0.002534   0.000269   0.541703   0.003870   0.000032  -0.000057
             25         26         27         28         29         30
     1  C    0.000000   0.000000   0.000000   0.000000   0.000000   0.000000
     2  N    0.000000   0.000000   0.000000   0.000000   0.000000   0.000000
     3  C    0.000000   0.000000   0.000000   0.000000   0.000000   0.000000
     4  C    0.000000   0.000000   0.000000   0.000000   0.000000   0.000006
     5  C   -0.000001   0.000000   0.000000   0.000000   0.000000  -0.000382
     6  N    0.000000   0.000000   0.000000   0.000000   0.000000  -0.000074
     7  H    0.000000   0.000000   0.000000   0.000000   0.000000   0.000000
     8  N    0.000000   0.000000   0.000000   0.000000   0.000000   0.000000
     9  H    0.000000   0.000000   0.000000   0.000000   0.000000   0.000000
    10  H    0.000000   0.000000   0.000000   0.000000   0.000000   0.000000
    11  N    0.000000   0.000000   0.000000   0.000000   0.000000  -0.000006
    12  C    0.000000   0.000000   0.000000   0.000000   0.000000   0.000072
    13  N   -0.000041   0.000000  -0.000004   0.000000   0.000000  -0.026429
    14  H    0.000000   0.000000   0.000000   0.000000   0.000000  -0.000004
    15  H    0.000608  -0.000002   0.000039   0.000000   0.000000   0.072840
    16  C    0.004680   0.000341  -0.000088  -0.000085   0.000001   0.003290
    17  C   -0.159372  -0.002766   0.007005   0.002502   0.000029  -0.107932
    18  H   -0.000011   0.000001   0.000000   0.000001   0.000000   0.000636
    19  H    0.000073  -0.000006   0.000000   0.000002   0.000000   0.002534
    20  H   -0.000086  -0.000020   0.000002  -0.000005   0.000000   0.000269
    21  C    0.054216   0.001296  -0.008539  -0.000002  -0.000016   0.541703
    22  C    0.004412  -0.028573  -0.000765  -0.018596   0.001134   0.003870
    23  N   -0.183953   0.067894   0.005152   0.310976  -0.111901   0.000032
    24  H   -0.000182   0.002035   0.000017  -0.003958  -0.000068  -0.000057
    25  N    7.865222   0.048833   0.292099   0.005850  -0.108818  -0.120380
    26  C    0.048833   4.586937  -0.014918  -0.011101   0.651984   0.000544
    27  H    0.292099  -0.014918   0.352113  -0.000076   0.002384   0.004974
    28  H    0.005850  -0.011101  -0.000076   0.354473   0.004305   0.000004
    29  O   -0.108818   0.651984   0.002384   0.004305   7.980845  -0.000012
    30  O   -0.120380   0.000544   0.004974   0.000004  -0.000012   8.122807
 Mulliken atomic charges:
              1
     1  C    0.416867
     2  N   -0.427727
     3  C    0.111975
     4  C    0.091502
     5  C    0.418991
     6  N   -0.377935
     7  H    0.145610
     8  N   -0.751767
     9  H    0.331064
    10  H    0.344419
    11  N   -0.418089
    12  C    0.260245
    13  N   -0.742360
    14  H    0.172084
    15  H    0.392869
    16  C   -0.492149
    17  C    0.062959
    18  H    0.227886
    19  H    0.161430
    20  H    0.132794
    21  C    0.535789
    22  C    0.115741
    23  N   -0.686899
    24  H    0.182190
    25  N   -0.703151
    26  C    0.697521
    27  H    0.360607
    28  H    0.355709
    29  O   -0.419866
    30  O   -0.498306
 Sum of Mulliken atomic charges =   0.00000
 Mulliken charges with hydrogens summed into heavy atoms:
              1
     1  C    0.416867
     2  N   -0.427727
     3  C    0.257585
     4  C    0.091502
     5  C    0.418991
     6  N   -0.377935
     8  N   -0.076284
    11  N   -0.418089
    12  C    0.432329
    13  N   -0.349492
    16  C    0.029960
    17  C    0.062959
    21  C    0.535789
    22  C    0.297930
    23  N   -0.331190
    25  N   -0.342543
    26  C    0.697521
    29  O   -0.419866
    30  O   -0.498306
 Sum of Mulliken charges with hydrogens summed into heavy atoms =   0.00000
 Electronic spatial extent (au):  <R**2>=           7536.6850
 Charge=              0.0000 electrons
 Dipole moment (field-independent basis, Debye):
    X=             -2.6664    Y=              2.2341    Z=              1.2536  Tot=              3.6977
 Quadrupole moment (field-independent basis, Debye-Ang):
   XX=           -101.3263   YY=           -103.6326   ZZ=           -112.1089
   XY=            -19.0964   XZ=             -8.1636   YZ=              0.2493
 Traceless Quadrupole moment (field-independent basis, Debye-Ang):
   XX=              4.3629   YY=              2.0566   ZZ=             -6.4196
   XY=            -19.0964   XZ=             -8.1636   YZ=              0.2493
 Octapole moment (field-independent basis, Debye-Ang**2):
  XXX=            154.7729  YYY=             -4.4986  ZZZ=              0.9318  XYY=            -59.1206
  XXY=             94.4768  XXZ=             29.3887  XZZ=             -0.8604  YZZ=             -0.6456
  YYZ=              3.8332  XYZ=             12.0590
 Hexadecapole moment (field-independent basis, Debye-Ang**3):
 XXXX=          -7701.9406 YYYY=          -1122.2206 ZZZZ=           -337.1485 XXXY=           -657.8538
 XXXZ=           -403.9613 YYYX=            -21.4497 YYYZ=             -1.4805 ZZZX=             10.6362
 ZZZY=             -0.6498 XXYY=          -1589.2438 XXZZ=          -1555.6874 YYZZ=           -263.4478
 XXYZ=            -57.6371 YYXZ=              6.6320 ZZXY=            -10.3428
 N-N= 1.323497618496D+03 E-N=-4.795583860116D+03  KE= 9.160673948624D+02
 1\1\GINC-LSQC07\FOpt\RB3LYP\6-31G\C10H11N7O2\LITAO\18-May-2015\0\\#opt
  b3lyp/6-31g\\Title Card Required\\0,1\C,-1.0767518159,-0.5706742891,0
 .2060792413\N,-0.6438387726,-1.8337441936,0.4652088658\C,0.6856154539,
 -2.0510708092,0.6095081448\C,-0.122171933,0.4605228476,0.0964639377\C,
 1.2278175155,0.1036341605,0.2647264218\N,1.6835036702,-1.1460359989,0.
 5256807853\H,0.9771364573,-3.0733452645,0.8165230626\N,-2.4074184602,-
 0.3549682495,0.0636796702\H,-3.0391445321,-1.1335088883,0.1523767933\H
 ,-2.7556771,0.5693492676,-0.1293930203\N,-0.2418355081,1.8294430052,-0
 .1589180449\C,1.0121431544,2.2736883093,-0.1426683105\N,1.9404536258,1
 .2745275568,0.1104435623\H,1.3060319177,3.2972438567,-0.3061745404\H,2
 .9591551804,1.3681198123,0.1499834536\C,4.89694052,-0.8090701361,1.831
 8378222\C,5.9910334673,-0.3881592369,0.8920087159\H,3.9765654831,-1.07
 94619124,1.2966656813\H,4.6370635856,0.0081690407,2.5156818241\H,5.210
 3609677,-1.6684833656,2.4327525187\C,5.7850652273,0.7836013082,0.04690
 69657\C,7.1782582273,-1.0426376265,0.7845303523\N,8.1789478004,-0.6395
 724363,-0.084624712\H,7.4038478701,-1.9193016269,1.3785289642\N,6.8532
 774206,1.124370473,-0.7924641904\C,8.0757995418,0.4677868038,-0.920540
 8827\H,6.7226582131,1.9365977133,-1.3834117603\H,9.0480475615,-1.14972
 04769,-0.1452136646\O,8.9765532519,0.8289442332,-1.6953027994\O,4.7475
 010089,1.4921778025,0.0269614423\\Version=EM64L-G09RevA.01\State=1-A\H
 F=-921.1779725\RMSD=6.428e-09\RMSF=1.622e-06\Dipole=1.1249044,-0.57315
 14,0.722799\Quadrupole=5.6104118,-0.4995911,-5.1108208,-10.6908922,10.
 5662653,-1.1841629\PG=C01 [X(C10H11N7O2)]\\@


 IT CANNOT BE MY BEAUTY, FOR I HAVE NONE; AND IT CANNOT BE MY WIT,
 FOR HE HAS NOT ENOUGH TO KNOW THAT I HAVE ANY.
 -- CATHARINE SEDLEY, PUZZLED ABOUT WHY SHE WAS MISTRESS TO JAMES II
 Job cpu time:  0 days  1 hours 19 minutes 17.2 seconds.
 File lengths (MBytes):  RWF=     29 Int=      0 D2E=      0 Chk=      4 Scr=      1
 Normal termination of Gaussian 09 at Mon May 18 20:46:15 2015.
