 Entering Gaussian System, Link 0=g09
 Input=T.gjf
 Output=T.log
 Initial command:
 /usr/g09/l1.exe /scratch/litao/gaussian/Gau-27916.inp -scrdir=/scratch/litao/gaussian/
 Entering Link 1 = /usr/g09/l1.exe PID=     27917.
  
 Copyright (c) 1988,1990,1992,1993,1995,1998,2003,2009, Gaussian, Inc.
                  All Rights Reserved.
  
 This is part of the Gaussian(R) 09 program.  It is based on
 the Gaussian(R) 03 system (copyright 2003, Gaussian, Inc.),
 the Gaussian(R) 98 system (copyright 1998, Gaussian, Inc.),
 the Gaussian(R) 94 system (copyright 1995, Gaussian, Inc.),
 the Gaussian 92(TM) system (copyright 1992, Gaussian, Inc.),
 the Gaussian 90(TM) system (copyright 1990, Gaussian, Inc.),
 the Gaussian 88(TM) system (copyright 1988, Gaussian, Inc.),
 the Gaussian 86(TM) system (copyright 1986, Carnegie Mellon
 University), and the Gaussian 82(TM) system (copyright 1983,
 Carnegie Mellon University). Gaussian is a federally registered
 trademark of Gaussian, Inc.
  
 This software contains proprietary and confidential information,
 including trade secrets, belonging to Gaussian, Inc.
  
 This software is provided under written license and may be
 used, copied, transmitted, or stored only in accord with that
 written license.
  
 The following legend is applicable only to US Government
 contracts under FAR:
  
                    RESTRICTED RIGHTS LEGEND
  
 Use, reproduction and disclosure by the US Government is
 subject to restrictions as set forth in subparagraphs (a)
 and (c) of the Commercial Computer Software - Restricted
 Rights clause in FAR 52.227-19.
  
 Gaussian, Inc.
 340 Quinnipiac St., Bldg. 40, Wallingford CT 06492
  
  
 ---------------------------------------------------------------
 Warning -- This program may not be used in any manner that
 competes with the business of Gaussian, Inc. or will provide
 assistance to any competitor of Gaussian, Inc.  The licensee
 of this program is prohibited from giving any competitor of
 Gaussian, Inc. access to this program.  By using this program,
 the user acknowledges that Gaussian, Inc. is engaged in the
 business of creating and licensing software in the field of
 computational chemistry and represents and warrants to the
 licensee that it is not a competitor of Gaussian, Inc. and that
 it will not use this program in any manner prohibited above.
 ---------------------------------------------------------------
  

 Cite this work as:
 Gaussian 09, Revision A.01,
 M. J. Frisch, G. W. Trucks, H. B. Schlegel, G. E. Scuseria, 
 M. A. Robb, J. R. Cheeseman, G. Scalmani, V. Barone, B. Mennucci, 
 G. A. Petersson, H. Nakatsuji, M. Caricato, X. Li, H. P. Hratchian, 
 A. F. Izmaylov, J. Bloino, G. Zheng, J. L. Sonnenberg, M. Hada, 
 M. Ehara, K. Toyota, R. Fukuda, J. Hasegawa, M. Ishida, T. Nakajima, 
 Y. Honda, O. Kitao, H. Nakai, T. Vreven, J. A. Montgomery, Jr., 
 J. E. Peralta, F. Ogliaro, M. Bearpark, J. J. Heyd, E. Brothers, 
 K. N. Kudin, V. N. Staroverov, R. Kobayashi, J. Normand, 
 K. Raghavachari, A. Rendell, J. C. Burant, S. S. Iyengar, J. Tomasi, 
 M. Cossi, N. Rega, J. M. Millam, M. Klene, J. E. Knox, J. B. Cross, 
 V. Bakken, C. Adamo, J. Jaramillo, R. Gomperts, R. E. Stratmann, 
 O. Yazyev, A. J. Austin, R. Cammi, C. Pomelli, J. W. Ochterski, 
 R. L. Martin, K. Morokuma, V. G. Zakrzewski, G. A. Voth, 
 P. Salvador, J. J. Dannenberg, S. Dapprich, A. D. Daniels, 
 O. Farkas, J. B. Foresman, J. V. Ortiz, J. Cioslowski, 
 and D. J. Fox, Gaussian, Inc., Wallingford CT, 2009.
 
 ******************************************
 Gaussian 09:  EM64L-G09RevA.01  8-May-2009
                15-May-2015 
 ******************************************
 %nprocshared=8
 Will use up to    8 processors via shared memory.
 %mem=8GB
 %chk=T.chk
 ----------------
 #opt b3lyp/6-31g
 ----------------
 1/14=-1,18=20,19=15,26=3,38=1/1,3;
 2/9=110,12=2,17=6,18=5,40=1/2;
 3/5=1,6=6,11=2,16=1,25=1,30=1,71=1,74=-5/1,2,3;
 4//1;
 5/5=2,38=5/2;
 6/7=2,8=2,9=2,10=2,28=1/1;
 7//1,2,3,16;
 1/14=-1,18=20,19=15/3(2);
 2/9=110/2;
 99//99;
 2/9=110/2;
 3/5=1,6=6,11=2,16=1,25=1,30=1,71=1,74=-5/1,2,3;
 4/5=5,16=3/1;
 5/5=2,38=5/2;
 7//1,2,3,16;
 1/14=-1,18=20,19=15/3(-5);
 2/9=110/2;
 6/7=2,8=2,9=2,10=2,19=2,28=1/1;
 99/9=1/99;
 -------------------
 Title Card Required
 -------------------
 Symbolic Z-matrix:
 Charge =  0 Multiplicity = 1
 C                    -1.0254    3.02302  -0.05018 
 C                    -2.07096   1.95785  -0.02211 
 H                    -0.72244   3.2829    0.96895 
 H                    -1.38115   3.93229  -0.54454 
 H                    -0.13914   2.68787  -0.60008 
 C                    -3.50215   2.36057  -0.08102 
 C                    -1.7936    0.64849   0.02756 
 N                    -2.785    -0.2909    0.03229 
 H                    -0.77601   0.27182   0.07121 
 N                    -4.4145    1.34248  -0.10365 
 C                    -4.11693   0.01275  -0.03665 
 H                    -5.38854   1.59622  -0.14873 
 H                    -2.55509  -1.27676   0.07649 
 O                    -4.98072  -0.8566   -0.03619 
 O                    -3.84667   3.53777  -0.10728 
 

 GradGradGradGradGradGradGradGradGradGradGradGradGradGradGradGradGradGrad
 Berny optimization.
 Initialization pass.
                           ----------------------------
                           !    Initial Parameters    !
                           ! (Angstroms and Degrees)  !
 --------------------------                            --------------------------
 ! Name  Definition              Value          Derivative Info.                !
 --------------------------------------------------------------------------------
 ! R1    R(1,2)                  1.4928         estimate D2E/DX2                !
 ! R2    R(1,3)                  1.0945         estimate D2E/DX2                !
 ! R3    R(1,4)                  1.0944         estimate D2E/DX2                !
 ! R4    R(1,5)                  1.0955         estimate D2E/DX2                !
 ! R5    R(2,6)                  1.4879         estimate D2E/DX2                !
 ! R6    R(2,7)                  1.3393         estimate D2E/DX2                !
 ! R7    R(6,10)                 1.3673         estimate D2E/DX2                !
 ! R8    R(6,15)                 1.2269         estimate D2E/DX2                !
 ! R9    R(7,8)                  1.3658         estimate D2E/DX2                !
 ! R10   R(7,9)                  1.0859         estimate D2E/DX2                !
 ! R11   R(8,11)                 1.3678         estimate D2E/DX2                !
 ! R12   R(8,13)                 1.0133         estimate D2E/DX2                !
 ! R13   R(10,11)                1.3643         estimate D2E/DX2                !
 ! R14   R(10,12)                1.0076         estimate D2E/DX2                !
 ! R15   R(11,14)                1.2255         estimate D2E/DX2                !
 ! A1    A(2,1,3)              110.2292         estimate D2E/DX2                !
 ! A2    A(2,1,4)              111.9404         estimate D2E/DX2                !
 ! A3    A(2,1,5)              110.9622         estimate D2E/DX2                !
 ! A4    A(3,1,4)              108.2588         estimate D2E/DX2                !
 ! A5    A(3,1,5)              108.4269         estimate D2E/DX2                !
 ! A6    A(4,1,5)              106.8822         estimate D2E/DX2                !
 ! A7    A(1,2,6)              118.6729         estimate D2E/DX2                !
 ! A8    A(1,2,7)              123.5873         estimate D2E/DX2                !
 ! A9    A(6,2,7)              117.7269         estimate D2E/DX2                !
 ! A10   A(2,6,10)             116.1647         estimate D2E/DX2                !
 ! A11   A(2,6,15)             122.0496         estimate D2E/DX2                !
 ! A12   A(10,6,15)            121.7857         estimate D2E/DX2                !
 ! A13   A(2,7,8)              121.4812         estimate D2E/DX2                !
 ! A14   A(2,7,9)              122.3195         estimate D2E/DX2                !
 ! A15   A(8,7,9)              116.1987         estimate D2E/DX2                !
 ! A16   A(7,8,11)             123.6396         estimate D2E/DX2                !
 ! A17   A(7,8,13)             120.3077         estimate D2E/DX2                !
 ! A18   A(11,8,13)            116.048          estimate D2E/DX2                !
 ! A19   A(6,10,11)            125.4092         estimate D2E/DX2                !
 ! A20   A(6,10,12)            117.2777         estimate D2E/DX2                !
 ! A21   A(11,10,12)           117.2917         estimate D2E/DX2                !
 ! A22   A(8,11,10)            115.5462         estimate D2E/DX2                !
 ! A23   A(8,11,14)            121.9268         estimate D2E/DX2                !
 ! A24   A(10,11,14)           122.5269         estimate D2E/DX2                !
 ! D1    D(3,1,2,6)             95.0829         estimate D2E/DX2                !
 ! D2    D(3,1,2,7)            -86.2581         estimate D2E/DX2                !
 ! D3    D(4,1,2,6)            -25.4757         estimate D2E/DX2                !
 ! D4    D(4,1,2,7)            153.1833         estimate D2E/DX2                !
 ! D5    D(5,1,2,6)           -144.7895         estimate D2E/DX2                !
 ! D6    D(5,1,2,7)             33.8695         estimate D2E/DX2                !
 ! D7    D(1,2,6,10)           177.5868         estimate D2E/DX2                !
 ! D8    D(1,2,6,15)            -2.4444         estimate D2E/DX2                !
 ! D9    D(7,2,6,10)            -1.1513         estimate D2E/DX2                !
 ! D10   D(7,2,6,15)           178.8175         estimate D2E/DX2                !
 ! D11   D(1,2,7,8)           -179.0486         estimate D2E/DX2                !
 ! D12   D(1,2,7,9)              1.2641         estimate D2E/DX2                !
 ! D13   D(6,2,7,8)             -0.3777         estimate D2E/DX2                !
 ! D14   D(6,2,7,9)            179.935          estimate D2E/DX2                !
 ! D15   D(2,6,10,11)            2.0685         estimate D2E/DX2                !
 ! D16   D(2,6,10,12)         -179.6659         estimate D2E/DX2                !
 ! D17   D(15,6,10,11)        -177.9004         estimate D2E/DX2                !
 ! D18   D(15,6,10,12)           0.3652         estimate D2E/DX2                !
 ! D19   D(2,7,8,11)             1.2323         estimate D2E/DX2                !
 ! D20   D(2,7,8,13)          -179.5907         estimate D2E/DX2                !
 ! D21   D(9,7,8,11)          -179.0623         estimate D2E/DX2                !
 ! D22   D(9,7,8,13)             0.1147         estimate D2E/DX2                !
 ! D23   D(7,8,11,10)           -0.4221         estimate D2E/DX2                !
 ! D24   D(7,8,11,14)          179.6642         estimate D2E/DX2                !
 ! D25   D(13,8,11,10)        -179.6313         estimate D2E/DX2                !
 ! D26   D(13,8,11,14)           0.455          estimate D2E/DX2                !
 ! D27   D(6,10,11,8)           -1.3111         estimate D2E/DX2                !
 ! D28   D(6,10,11,14)         178.602          estimate D2E/DX2                !
 ! D29   D(12,10,11,8)        -179.5764         estimate D2E/DX2                !
 ! D30   D(12,10,11,14)          0.3367         estimate D2E/DX2                !
 --------------------------------------------------------------------------------
 Trust Radius=3.00D-01 FncErr=1.00D-07 GrdErr=1.00D-06
 Number of steps in this run=  79 maximum allowed number of steps= 100.
 GradGradGradGradGradGradGradGradGradGradGradGradGradGradGradGradGradGrad

                          Input orientation:                          
 ---------------------------------------------------------------------
 Center     Atomic      Atomic             Coordinates (Angstroms)
 Number     Number       Type             X           Y           Z
 ---------------------------------------------------------------------
      1          6           0       -1.025400    3.023020   -0.050180
      2          6           0       -2.070960    1.957850   -0.022110
      3          1           0       -0.722440    3.282900    0.968950
      4          1           0       -1.381150    3.932290   -0.544540
      5          1           0       -0.139140    2.687870   -0.600080
      6          6           0       -3.502150    2.360570   -0.081020
      7          6           0       -1.793600    0.648490    0.027560
      8          7           0       -2.785000   -0.290900    0.032290
      9          1           0       -0.776010    0.271820    0.071210
     10          7           0       -4.414500    1.342480   -0.103650
     11          6           0       -4.116930    0.012750   -0.036650
     12          1           0       -5.388540    1.596220   -0.148730
     13          1           0       -2.555090   -1.276760    0.076490
     14          8           0       -4.980720   -0.856600   -0.036190
     15          8           0       -3.846670    3.537770   -0.107280
 ---------------------------------------------------------------------
                    Distance matrix (angstroms):
                    1          2          3          4          5
     1  C    0.000000
     2  C    1.492840   0.000000
     3  H    1.094508   2.134587   0.000000
     4  H    1.094405   2.155733   1.773769   0.000000
     5  H    1.095524   2.144506   1.776557   1.759049   0.000000
     6  C    2.563997   1.487938   3.111257   2.680260   3.418535
     7  C    2.496912   1.339335   2.995616   3.358684   2.700045
     8  N    3.753007   2.360019   4.231257   4.487634   4.034047
     9  H    2.765146   2.127981   3.142516   3.760902   2.587186
    10  N    3.783262   2.424357   4.306624   4.012818   4.509459
    11  C    4.315028   2.823051   4.819510   4.806791   4.826648
    12  H    4.591564   3.339633   5.085920   4.655434   5.380671
    13  H    4.565534   3.272126   4.994556   5.375687   4.691786
    14  O    5.540415   4.048213   6.023181   6.012386   6.026785
    15  O    2.868413   2.378350   3.314218   2.534883   3.835487
                    6          7          8          9         10
     6  C    0.000000
     7  C    2.421188   0.000000
     8  N    2.749079   1.365778   0.000000
     9  H    3.437716   1.085944   2.086674   0.000000
    10  N    1.367261   2.714398   2.311208   3.796775   0.000000
    11  C    2.427382   2.409596   1.367843   3.352685   1.364265
    12  H    2.036488   3.721944   3.220623   4.803940   1.007557
    13  H    3.761901   2.070954   1.013278   2.358655   3.217184
    14  O    3.540955   3.525208   2.268456   4.354819   2.271807
    15  O    1.226859   3.547001   3.975593   4.486339   2.267541
                   11         12         13         14         15
    11  C    0.000000
    12  H    2.033945   0.000000
    13  H    2.028542   4.041433   0.000000
    14  O    1.225521   2.489038   2.464328   0.000000
    15  O    3.536071   2.479657   4.988151   4.538900   0.000000
 Stoichiometry    C5H6N2O2
 Framework group  C1[X(C5H6N2O2)]
 Deg. of freedom    39
 Full point group                 C1      NOp   1
 Largest Abelian subgroup         C1      NOp   1
 Largest concise Abelian subgroup C1      NOp   1
                         Standard orientation:                         
 ---------------------------------------------------------------------
 Center     Atomic      Atomic             Coordinates (Angstroms)
 Number     Number       Type             X           Y           Z
 ---------------------------------------------------------------------
      1          6           0        2.617963   -0.702941   -0.018817
      2          6           0        1.141006   -0.487403    0.007836
      3          1           0        2.999195   -0.837565    0.998280
      4          1           0        3.146149    0.140520   -0.474137
      5          1           0        2.873727   -1.592369   -0.605055
      6          6           0        0.622888    0.907408    0.004225
      7          6           0        0.246639   -1.484362    0.008936
      8          7           0       -1.096630   -1.237490    0.014510
      9          1           0        0.542055   -2.529351    0.010491
     10          7           0       -0.737144    1.045292   -0.022321
     11          6           0       -1.636171    0.019293   -0.005138
     12          1           0       -1.106160    1.982805   -0.030385
     13          1           0       -1.757650   -2.005433    0.021503
     14          8           0       -2.847604    0.204586   -0.005501
     15          8           0        1.370748    1.879766    0.024466
 ---------------------------------------------------------------------
 Rotational constants (GHZ):      3.1988893      1.4312292      0.9951561
 Standard basis: 6-31G (6D, 7F)
 There are    93 symmetry adapted basis functions of A   symmetry.
 Integral buffers will be    131072 words long.
 Raffenetti 2 integral format.
 Two-electron integral symmetry is turned on.
    93 basis functions,   222 primitive gaussians,    93 cartesian basis functions
    33 alpha electrons       33 beta electrons
       nuclear repulsion energy       441.4743516357 Hartrees.
 NAtoms=   15 NActive=   15 NUniq=   15 SFac= 7.50D-01 NAtFMM=   80 NAOKFM=F Big=F
 One-electron integrals computed using PRISM.
 NBasis=    93 RedAO= T  NBF=    93
 NBsUse=    93 1.00D-06 NBFU=    93
 Harris functional with IExCor=  402 diagonalized for initial guess.
 ExpMin= 1.61D-01 ExpMax= 5.48D+03 ExpMxC= 8.25D+02 IAcc=1 IRadAn=         1 AccDes= 0.00D+00
 HarFok:  IExCor=  402 AccDes= 0.00D+00 IRadAn=         1 IDoV= 1
 ScaDFX=  1.000000  1.000000  1.000000  1.000000
 FoFCou: FMM=F IPFlag=           0 FMFlag=      100000 FMFlg1=           0
         NFxFlg=           0 DoJE=T BraDBF=F KetDBF=T FulRan=T
         Omega=  0.000000  0.000000  1.000000  0.000000  0.000000 ICntrl=     500 IOpCl=  0
         NMat0=    1 NMatS0=    1 NMatT0=    0 NMatD0=    1 NMtDS0=    0 NMtDT0=    0
         I1Cent=           4 NGrid=           0.
 Petite list used in FoFCou.
 Initial guess orbital symmetries:
       Occupied  (A) (A) (A) (A) (A) (A) (A) (A) (A) (A) (A) (A)
                 (A) (A) (A) (A) (A) (A) (A) (A) (A) (A) (A) (A)
                 (A) (A) (A) (A) (A) (A) (A) (A) (A)
       Virtual   (A) (A) (A) (A) (A) (A) (A) (A) (A) (A) (A) (A)
                 (A) (A) (A) (A) (A) (A) (A) (A) (A) (A) (A) (A)
                 (A) (A) (A) (A) (A) (A) (A) (A) (A) (A) (A) (A)
                 (A) (A) (A) (A) (A) (A) (A) (A) (A) (A) (A) (A)
                 (A) (A) (A) (A) (A) (A) (A) (A) (A) (A) (A) (A)
 The electronic state of the initial guess is 1-A.
 Requested convergence on RMS density matrix=1.00D-08 within 128 cycles.
 Requested convergence on MAX density matrix=1.00D-06.
 Requested convergence on             energy=1.00D-06.
 No special actions if energy rises.
 Keep R1 ints in memory in canonical form, NReq=10639848.
 Integral accuracy reduced to 1.0D-05 until final iterations.
 Initial convergence to 1.0D-05 achieved.  Increase integral accuracy.
 SCF Done:  E(RB3LYP) =  -453.990434753     A.U. after   15 cycles
             Convg  =    0.9638D-08             -V/T =  2.0046

 **********************************************************************

            Population analysis using the SCF density.

 **********************************************************************

 Orbital symmetries:
       Occupied  (A) (A) (A) (A) (A) (A) (A) (A) (A) (A) (A) (A)
                 (A) (A) (A) (A) (A) (A) (A) (A) (A) (A) (A) (A)
                 (A) (A) (A) (A) (A) (A) (A) (A) (A)
       Virtual   (A) (A) (A) (A) (A) (A) (A) (A) (A) (A) (A) (A)
                 (A) (A) (A) (A) (A) (A) (A) (A) (A) (A) (A) (A)
                 (A) (A) (A) (A) (A) (A) (A) (A) (A) (A) (A) (A)
                 (A) (A) (A) (A) (A) (A) (A) (A) (A) (A) (A) (A)
                 (A) (A) (A) (A) (A) (A) (A) (A) (A) (A) (A) (A)
 The electronic state is 1-A.
 Alpha  occ. eigenvalues --  -19.12907 -19.12749 -14.40641 -14.39552 -10.34768
 Alpha  occ. eigenvalues --  -10.31140 -10.26203 -10.21420 -10.18734  -1.10252
 Alpha  occ. eigenvalues --   -1.06580  -0.99789  -0.95322  -0.82699  -0.72703
 Alpha  occ. eigenvalues --   -0.69348  -0.68266  -0.58446  -0.58006  -0.54219
 Alpha  occ. eigenvalues --   -0.49890  -0.47596  -0.43473  -0.43401  -0.42366
 Alpha  occ. eigenvalues --   -0.41095  -0.40863  -0.38441  -0.36456  -0.29037
 Alpha  occ. eigenvalues --   -0.28714  -0.26427  -0.24207
 Alpha virt. eigenvalues --   -0.03853   0.00555   0.05310   0.09321   0.10652
 Alpha virt. eigenvalues --    0.11120   0.13315   0.15436   0.18453   0.20946
 Alpha virt. eigenvalues --    0.22081   0.23365   0.27385   0.29921   0.32358
 Alpha virt. eigenvalues --    0.35289   0.37856   0.46617   0.47044   0.52272
 Alpha virt. eigenvalues --    0.55096   0.55733   0.57410   0.58387   0.60462
 Alpha virt. eigenvalues --    0.63227   0.63775   0.65980   0.70032   0.71544
 Alpha virt. eigenvalues --    0.72254   0.75203   0.77446   0.81743   0.83611
 Alpha virt. eigenvalues --    0.85122   0.86202   0.86392   0.89950   0.92125
 Alpha virt. eigenvalues --    0.93362   0.93854   0.95367   0.99510   1.03156
 Alpha virt. eigenvalues --    1.04867   1.08883   1.10168   1.14950   1.16678
 Alpha virt. eigenvalues --    1.20144   1.27833   1.30733   1.44419   1.46366
 Alpha virt. eigenvalues --    1.54198   1.62296   1.68905   2.04033   2.08048
          Condensed to atoms (all electrons):
              1          2          3          4          5          6
     1  C    5.112318   0.348293   0.372634   0.369638   0.368085  -0.038486
     2  C    0.348293   5.398166  -0.036320  -0.033058  -0.041926   0.182090
     3  H    0.372634  -0.036320   0.563086  -0.026782  -0.031021  -0.001612
     4  H    0.369638  -0.033058  -0.026782   0.520410  -0.028509  -0.001887
     5  H    0.368085  -0.041926  -0.031021  -0.028509   0.588295   0.005046
     6  C   -0.038486   0.182090  -0.001612  -0.001887   0.005046   4.806085
     7  C   -0.060376   0.489499  -0.003351   0.003488  -0.004796  -0.026772
     8  N    0.005100  -0.026400  -0.000023  -0.000134   0.000169  -0.011731
     9  H   -0.003635  -0.018421   0.000575   0.000014   0.003023   0.003571
    10  N    0.005247  -0.185172  -0.000099   0.000553  -0.000060  -0.037724
    11  C    0.000380  -0.002652  -0.000007  -0.000017  -0.000023   0.005466
    12  H   -0.000070   0.008088   0.000002  -0.000006   0.000002  -0.007963
    13  H   -0.000120   0.002774   0.000002   0.000002  -0.000003   0.000135
    14  O    0.000001   0.000074   0.000000   0.000000   0.000000  -0.000521
    15  O   -0.003987  -0.120418   0.000475   0.009719   0.000338   0.643791
              7          8          9         10         11         12
     1  C   -0.060376   0.005100  -0.003635   0.005247   0.000380  -0.000070
     2  C    0.489499  -0.026400  -0.018421  -0.185172  -0.002652   0.008088
     3  H   -0.003351  -0.000023   0.000575  -0.000099  -0.000007   0.000002
     4  H    0.003488  -0.000134   0.000014   0.000553  -0.000017  -0.000006
     5  H   -0.004796   0.000169   0.003023  -0.000060  -0.000023   0.000002
     6  C   -0.026772  -0.011731   0.003571  -0.037724   0.005466  -0.007963
     7  C    4.985213   0.162350   0.362273   0.010098  -0.027072  -0.001090
     8  N    0.162350   7.557824  -0.048865  -0.195391   0.051757   0.005131
     9  H    0.362273  -0.048865   0.530271  -0.000259   0.002251   0.000020
    10  N    0.010098  -0.195391  -0.000259   8.008816   0.031627   0.294277
    11  C   -0.027072   0.051757   0.002251   0.031627   4.613736  -0.016726
    12  H   -0.001090   0.005131   0.000020   0.294277  -0.016726   0.351767
    13  H   -0.019472   0.312136  -0.004309   0.005744  -0.011545  -0.000059
    14  O    0.001578  -0.126719  -0.000085  -0.123652   0.683948   0.002313
    15  O    0.005368   0.000037  -0.000062  -0.132372   0.000124   0.004438
             13         14         15
     1  C   -0.000120   0.000001  -0.003987
     2  C    0.002774   0.000074  -0.120418
     3  H    0.000002   0.000000   0.000475
     4  H    0.000002   0.000000   0.009719
     5  H   -0.000003   0.000000   0.000338
     6  C    0.000135  -0.000521   0.643791
     7  C   -0.019472   0.001578   0.005368
     8  N    0.312136  -0.126719   0.000037
     9  H   -0.004309  -0.000085  -0.000062
    10  N    0.005744  -0.123652  -0.132372
    11  C   -0.011545   0.683948   0.000124
    12  H   -0.000059   0.002313   0.004438
    13  H    0.356622   0.004373   0.000004
    14  O    0.004373   7.978860  -0.000020
    15  O    0.000004  -0.000020   8.015851
 Mulliken atomic charges:
              1
     1  C   -0.475021
     2  C    0.035383
     3  H    0.162440
     4  H    0.186569
     5  H    0.141379
     6  C    0.480514
     7  C    0.123063
     8  N   -0.685240
     9  H    0.173638
    10  N   -0.681633
    11  C    0.668752
    12  H    0.359874
    13  H    0.353716
    14  O   -0.420149
    15  O   -0.423286
 Sum of Mulliken atomic charges =   0.00000
 Mulliken charges with hydrogens summed into heavy atoms:
              1
     1  C    0.015368
     2  C    0.035383
     6  C    0.480514
     7  C    0.296701
     8  N   -0.331524
    10  N   -0.321759
    11  C    0.668752
    14  O   -0.420149
    15  O   -0.423286
 Sum of Mulliken charges with hydrogens summed into heavy atoms =   0.00000
 Electronic spatial extent (au):  <R**2>=           1121.1235
 Charge=              0.0000 electrons
 Dipole moment (field-independent basis, Debye):
    X=              0.9035    Y=             -4.2578    Z=             -0.0364  Tot=              4.3528
 Quadrupole moment (field-independent basis, Debye-Ang):
   XX=            -63.0265   YY=            -46.7375   ZZ=            -51.8210
   XY=             -3.4714   XZ=             -0.2040   YZ=             -0.2395
 Traceless Quadrupole moment (field-independent basis, Debye-Ang):
   XX=             -9.1648   YY=              7.1242   ZZ=              2.0407
   XY=             -3.4714   XZ=             -0.2040   YZ=             -0.2395
 Octapole moment (field-independent basis, Debye-Ang**2):
  XXX=             37.6811  YYY=            -17.8348  ZZZ=              0.5669  XYY=            -25.2327
  XXY=            -15.5095  XXZ=             -0.4260  XZZ=             -2.1199  YZZ=              3.3891
  YYZ=             -0.6132  XYZ=             -0.2356
 Hexadecapole moment (field-independent basis, Debye-Ang**3):
 XXXX=          -1044.6794 YYYY=           -390.5263 ZZZZ=            -53.4937 XXXY=             17.3991
 XXXZ=             -2.1824 YYYX=            -13.5965 YYYZ=             -0.1550 ZZZX=              1.6695
 ZZZY=             -0.3266 XXYY=           -215.9045 XXZZ=           -158.1247 YYZZ=            -82.4510
 XXYZ=             -1.2684 YYXZ=             -1.5973 ZZXY=              2.4098
 N-N= 4.414743516357D+02 E-N=-1.943571994365D+03  KE= 4.519228829217D+02
 Calling FoFJK, ICntrl=      2127 FMM=F ISym2X=0 I1Cent= 0 IOpClX= 0 NMat=1 NMatS=1 NMatT=0.
 ***** Axes restored to original set *****
 -------------------------------------------------------------------
 Center     Atomic                   Forces (Hartrees/Bohr)
 Number     Number              X              Y              Z
 -------------------------------------------------------------------
      1        6           0.005011179    0.003123919   -0.001807122
      2        6          -0.014417933    0.011086283   -0.006075344
      3        1           0.001944137    0.004063467    0.000610998
      4        1          -0.003078030   -0.001445915    0.002765806
      5        1           0.001450460   -0.000977856    0.002354241
      6        6           0.039709224    0.000882653    0.002776146
      7        6           0.019048234   -0.001147059    0.000862398
      8        7           0.010105827   -0.018290778    0.001196840
      9        1          -0.001741226   -0.000195393   -0.000582449
     10        7          -0.005862621    0.001525532    0.000131704
     11        6          -0.004337024   -0.008542053    0.000122712
     12        1          -0.004329415   -0.000673857   -0.000172315
     13        1          -0.003872413    0.003379579   -0.000176081
     14        8          -0.025068785   -0.025451680   -0.000158759
     15        8          -0.014561615    0.032663159   -0.001848774
 -------------------------------------------------------------------
 Cartesian Forces:  Max     0.039709224 RMS     0.011134347

 GradGradGradGradGradGradGradGradGradGradGradGradGradGradGradGradGradGrad
 Berny optimization.
 Internal  Forces:  Max     0.035724029 RMS     0.009782035
 Search for a local minimum.
 Step number   1 out of a maximum of   79
 All quantities printed in internal units (Hartrees-Bohrs-Radians)
 Mixed Optimization -- RFO/linear search
 Second derivative matrix not updated -- first step.
     Eigenvalues ---    0.00861   0.01401   0.01542   0.01697   0.02130
     Eigenvalues ---    0.02139   0.02140   0.02149   0.02395   0.02586
     Eigenvalues ---    0.07222   0.07341   0.15994   0.15999   0.16000
     Eigenvalues ---    0.16000   0.16000   0.16000   0.22355   0.23457
     Eigenvalues ---    0.24543   0.24993   0.25000   0.25000   0.33000
     Eigenvalues ---    0.33140   0.34182   0.34297   0.34309   0.35286
     Eigenvalues ---    0.45428   0.46384   0.46829   0.49015   0.51629
     Eigenvalues ---    0.51780   0.56173   0.92408   0.929781000.00000
     Eigenvalues --- 1000.000001000.000001000.000001000.000001000.00000
     Eigenvalues --- 1000.000001000.000001000.000001000.000001000.00000
     Eigenvalues --- 1000.000001000.000001000.000001000.000001000.00000
     Eigenvalues --- 1000.000001000.000001000.000001000.000001000.00000
     Eigenvalues --- 1000.000001000.000001000.000001000.000001000.00000
     Eigenvalues --- 1000.000001000.000001000.000001000.00000
 RFO step:  Lambda=-1.22385901D-02 EMin= 8.60662719D-03
 Linear search not attempted -- first point.
 Iteration  1 RMS(Cart)=  0.03481552 RMS(Int)=  0.00043628
 Iteration  2 RMS(Cart)=  0.00052543 RMS(Int)=  0.00009578
 Iteration  3 RMS(Cart)=  0.00000022 RMS(Int)=  0.00009578
 Variable       Old X    -DE/DX   Delta X   Delta X   Delta X     New X
                                 (Linear)    (Quad)   (Total)
    R1        2.82106   0.00706   0.00000   0.02054   0.02054   2.84160
    R2        2.06832   0.00207   0.00000   0.00583   0.00583   2.07415
    R3        2.06813  -0.00144   0.00000  -0.00407  -0.00407   2.06406
    R4        2.07024   0.00029   0.00000   0.00081   0.00081   2.07105
    R5        2.81179  -0.00526   0.00000  -0.01710  -0.01720   2.79459
    R6        2.53098   0.02080   0.00000   0.03455   0.03447   2.56544
    R7        2.58375   0.03358   0.00000   0.06353   0.06353   2.64728
    R8        2.31843   0.03547   0.00000   0.03788   0.03788   2.35631
    R9        2.58095   0.02424   0.00000   0.04598   0.04599   2.62694
   R10        2.05214  -0.00159   0.00000  -0.00434  -0.00434   2.04779
   R11        2.58485   0.01970   0.00000   0.03876   0.03886   2.62371
   R12        1.91482  -0.00417   0.00000  -0.00895  -0.00895   1.90587
   R13        2.57809   0.02700   0.00000   0.05169   0.05177   2.62986
   R14        1.90401   0.00402   0.00000   0.00845   0.00845   1.91245
   R15        2.31590   0.03572   0.00000   0.03792   0.03792   2.35382
    A1        1.92386   0.00544   0.00000   0.02902   0.02896   1.95282
    A2        1.95373  -0.00533   0.00000  -0.03305  -0.03291   1.92082
    A3        1.93666   0.00089   0.00000   0.00980   0.00972   1.94637
    A4        1.88947  -0.00200   0.00000  -0.02025  -0.02009   1.86938
    A5        1.89241  -0.00244   0.00000  -0.01006  -0.01031   1.88210
    A6        1.86545   0.00331   0.00000   0.02393   0.02403   1.88948
    A7        2.07123  -0.00391   0.00000  -0.01166  -0.01166   2.05957
    A8        2.15700   0.00149   0.00000   0.00899   0.00899   2.16600
    A9        2.05472   0.00243   0.00000   0.00316   0.00290   2.05762
   A10        2.02746  -0.00419   0.00000  -0.02037  -0.02048   2.00698
   A11        2.13017   0.00771   0.00000   0.03158   0.03162   2.16179
   A12        2.12556  -0.00352   0.00000  -0.01121  -0.01117   2.11439
   A13        2.12025   0.00458   0.00000   0.01633   0.01627   2.13652
   A14        2.13488  -0.00150   0.00000  -0.00356  -0.00353   2.13135
   A15        2.02805  -0.00308   0.00000  -0.01277  -0.01274   2.01531
   A16        2.15792   0.00049   0.00000   0.00423   0.00435   2.16227
   A17        2.09977   0.00262   0.00000   0.01456   0.01449   2.11426
   A18        2.02542  -0.00311   0.00000  -0.01873  -0.01880   2.00662
   A19        2.18880   0.01014   0.00000   0.04434   0.04442   2.23323
   A20        2.04688  -0.00340   0.00000  -0.01240  -0.01246   2.03442
   A21        2.04713  -0.00673   0.00000  -0.03171  -0.03177   2.01536
   A22        2.01666  -0.01344   0.00000  -0.04745  -0.04724   1.96942
   A23        2.12802   0.00654   0.00000   0.02305   0.02294   2.15096
   A24        2.13850   0.00690   0.00000   0.02441   0.02430   2.16280
    D1        1.65951  -0.00199   0.00000  -0.04927  -0.04941   1.61010
    D2       -1.50549  -0.00127   0.00000  -0.02360  -0.02378  -1.52927
    D3       -0.44464   0.00037   0.00000  -0.02150  -0.02146  -0.46609
    D4        2.67355   0.00108   0.00000   0.00417   0.00417   2.67773
    D5       -2.52705  -0.00089   0.00000  -0.03645  -0.03628  -2.56334
    D6        0.59114  -0.00017   0.00000  -0.01078  -0.01066   0.58048
    D7        3.09947   0.00096   0.00000   0.03096   0.03072   3.13019
    D8       -0.04266   0.00109   0.00000   0.03850   0.03843  -0.00423
    D9       -0.02009   0.00029   0.00000   0.00670   0.00661  -0.01348
   D10        3.12095   0.00042   0.00000   0.01424   0.01432   3.13528
   D11       -3.12499  -0.00061   0.00000  -0.02567  -0.02587   3.13232
   D12        0.02206  -0.00073   0.00000  -0.02577  -0.02593  -0.00386
   D13       -0.00659   0.00002   0.00000  -0.00041  -0.00046  -0.00705
   D14        3.14046  -0.00010   0.00000  -0.00051  -0.00051   3.13995
   D15        0.03610  -0.00013   0.00000  -0.00726  -0.00733   0.02877
   D16       -3.13576   0.00007   0.00000   0.00148   0.00149  -3.13427
   D17       -3.10495  -0.00026   0.00000  -0.01480  -0.01483  -3.11978
   D18        0.00637  -0.00006   0.00000  -0.00606  -0.00601   0.00037
   D19        0.02151  -0.00008   0.00000  -0.00450  -0.00459   0.01692
   D20       -3.13445  -0.00003   0.00000  -0.00036  -0.00035  -3.13480
   D21       -3.12523   0.00004   0.00000  -0.00439  -0.00452  -3.12974
   D22        0.00200   0.00008   0.00000  -0.00025  -0.00028   0.00172
   D23       -0.00737   0.00009   0.00000   0.00348   0.00348  -0.00389
   D24        3.13573  -0.00003   0.00000  -0.00059  -0.00057   3.13516
   D25       -3.13516   0.00000   0.00000  -0.00074  -0.00076  -3.13592
   D26        0.00794  -0.00011   0.00000  -0.00482  -0.00481   0.00313
   D27       -0.02288   0.00011   0.00000   0.00278   0.00280  -0.02008
   D28        3.11719   0.00023   0.00000   0.00688   0.00688   3.12407
   D29       -3.13420  -0.00014   0.00000  -0.00627  -0.00623  -3.14043
   D30        0.00588  -0.00002   0.00000  -0.00217  -0.00215   0.00373
         Item               Value     Threshold  Converged?
 Maximum Force            0.035724     0.000450     NO 
 RMS     Force            0.009782     0.000300     NO 
 Maximum Displacement     0.105204     0.001800     NO 
 RMS     Displacement     0.034797     0.001200     NO 
 Predicted change in Energy=-6.345673D-03
 GradGradGradGradGradGradGradGradGradGradGradGradGradGradGradGradGradGrad

                          Input orientation:                          
 ---------------------------------------------------------------------
 Center     Atomic      Atomic             Coordinates (Angstroms)
 Number     Number       Type             X           Y           Z
 ---------------------------------------------------------------------
      1          6           0       -1.006708    3.043119   -0.043004
      2          6           0       -2.059348    1.969314   -0.037756
      3          1           0       -0.718508    3.338571    0.974029
      4          1           0       -1.386466    3.937460   -0.541959
      5          1           0       -0.101323    2.715970   -0.566804
      6          6           0       -3.477201    2.386603   -0.087941
      7          6           0       -1.790045    0.639676    0.012692
      8          7           0       -2.792238   -0.323565    0.026669
      9          1           0       -0.776465    0.258144    0.049784
     10          7           0       -4.403550    1.335746   -0.094558
     11          6           0       -4.148287   -0.030703   -0.028404
     12          1           0       -5.381114    1.594425   -0.135216
     13          1           0       -2.570352   -1.306432    0.070261
     14          8           0       -5.036273   -0.904161   -0.021803
     15          8           0       -3.850422    3.575601   -0.129918
 ---------------------------------------------------------------------
                    Distance matrix (angstroms):
                    1          2          3          4          5
     1  C    0.000000
     2  C    1.503708   0.000000
     3  H    1.097591   2.167124   0.000000
     4  H    1.092254   2.140231   1.761549   0.000000
     5  H    1.095954   2.161307   1.772771   1.773203   0.000000
     6  C    2.556633   1.478836   3.105545   2.642435   3.425543
     7  C    2.528490   1.357574   3.058823   3.368367   2.738356
     8  N    3.811500   2.408022   4.313825   4.522816   4.102682
     9  H    2.796017   2.140457   3.216617   3.776193   2.622386
    10  N    3.802146   2.428974   4.328131   4.008975   4.542817
    11  C    4.395238   2.892027   4.911238   4.861863   4.920569
    12  H    4.608975   3.344274   5.100231   4.648921   5.414824
    13  H    4.623463   3.317123   5.081552   5.410619   4.762528
    14  O    5.640822   4.137535   6.134782   6.085470   6.144600
    15  O    2.894443   2.407612   3.329229   2.524243   3.871121
                    6          7          8          9         10
     6  C    0.000000
     7  C    2.430715   0.000000
     8  N    2.797734   1.390114   0.000000
     9  H    3.441407   1.083645   2.098156   0.000000
    10  N    1.400880   2.706736   2.316103   3.786529   0.000000
    11  C    2.509436   2.452019   1.388405   3.385074   1.391660
    12  H    2.062684   3.718762   3.226014   4.798193   1.012027
    13  H    3.806036   2.097505   1.008544   2.380408   3.220075
    14  O    3.642006   3.594804   2.318434   4.416111   2.328694
    15  O    1.246905   3.589588   4.043237   4.526259   2.307411
                   11         12         13         14         15
    11  C    0.000000
    12  H    2.042623   0.000000
    13  H    2.031526   4.044450   0.000000
    14  O    1.245589   2.524818   2.500213   0.000000
    15  O    3.620007   2.503618   5.051029   4.635320   0.000000
 Stoichiometry    C5H6N2O2
 Framework group  C1[X(C5H6N2O2)]
 Deg. of freedom    39
 Full point group                 C1      NOp   1
 Largest Abelian subgroup         C1      NOp   1
 Largest concise Abelian subgroup C1      NOp   1
                         Standard orientation:                         
 ---------------------------------------------------------------------
 Center     Atomic      Atomic             Coordinates (Angstroms)
 Number     Number       Type             X           Y           Z
 ---------------------------------------------------------------------
      1          6           0        2.646206   -0.724422   -0.001720
      2          6           0        1.159698   -0.497640   -0.002179
      3          1           0        3.043925   -0.828532    1.015967
      4          1           0        3.155046    0.126469   -0.460069
      5          1           0        2.915257   -1.627527   -0.561299
      6          6           0        0.670178    0.897822    0.001355
      7          6           0        0.237712   -1.494108   -0.003136
      8          7           0       -1.129692   -1.244081    0.007345
      9          1           0        0.520114   -2.540301   -0.007188
     10          7           0       -0.723781    1.036078   -0.013759
     11          6           0       -1.684001    0.028852    0.000159
     12          1           0       -1.084780    1.981518   -0.018330
     13          1           0       -1.797953   -1.999439    0.012290
     14          8           0       -2.911737    0.238968    0.003009
     15          8           0        1.417231    1.896132    0.009073
 ---------------------------------------------------------------------
 Rotational constants (GHZ):      3.1607639      1.3758842      0.9643715
 Standard basis: 6-31G (6D, 7F)
 There are    93 symmetry adapted basis functions of A   symmetry.
 Integral buffers will be    131072 words long.
 Raffenetti 2 integral format.
 Two-electron integral symmetry is turned on.
    93 basis functions,   222 primitive gaussians,    93 cartesian basis functions
    33 alpha electrons       33 beta electrons
       nuclear repulsion energy       435.6348092516 Hartrees.
 NAtoms=   15 NActive=   15 NUniq=   15 SFac= 7.50D-01 NAtFMM=   80 NAOKFM=F Big=F
 One-electron integrals computed using PRISM.
 NBasis=    93 RedAO= T  NBF=    93
 NBsUse=    93 1.00D-06 NBFU=    93
 Initial guess read from the read-write file.
 B after Tr=     0.000000    0.000000    0.000000
         Rot=    1.000000    0.000000    0.000000    0.000000 Ang=   0.00 deg.
 Initial guess orbital symmetries:
       Occupied  (A) (A) (A) (A) (A) (A) (A) (A) (A) (A) (A) (A)
                 (A) (A) (A) (A) (A) (A) (A) (A) (A) (A) (A) (A)
                 (A) (A) (A) (A) (A) (A) (A) (A) (A)
       Virtual   (A) (A) (A) (A) (A) (A) (A) (A) (A) (A) (A) (A)
                 (A) (A) (A) (A) (A) (A) (A) (A) (A) (A) (A) (A)
                 (A) (A) (A) (A) (A) (A) (A) (A) (A) (A) (A) (A)
                 (A) (A) (A) (A) (A) (A) (A) (A) (A) (A) (A) (A)
                 (A) (A) (A) (A) (A) (A) (A) (A) (A) (A) (A) (A)
 Harris functional with IExCor=  402 diagonalized for initial guess.
 ExpMin= 1.61D-01 ExpMax= 5.48D+03 ExpMxC= 8.25D+02 IAcc=1 IRadAn=         1 AccDes= 0.00D+00
 HarFok:  IExCor=  402 AccDes= 0.00D+00 IRadAn=         1 IDoV= 1
 ScaDFX=  1.000000  1.000000  1.000000  1.000000
 FoFCou: FMM=F IPFlag=           0 FMFlag=      100000 FMFlg1=           0
         NFxFlg=           0 DoJE=T BraDBF=F KetDBF=T FulRan=T
         Omega=  0.000000  0.000000  1.000000  0.000000  0.000000 ICntrl=     500 IOpCl=  0
         NMat0=    1 NMatS0=    1 NMatT0=    0 NMatD0=    1 NMtDS0=    0 NMtDT0=    0
         I1Cent=           4 NGrid=           0.
 Petite list used in FoFCou.
 Requested convergence on RMS density matrix=1.00D-08 within 128 cycles.
 Requested convergence on MAX density matrix=1.00D-06.
 Requested convergence on             energy=1.00D-06.
 No special actions if energy rises.
 Keep R1 ints in memory in canonical form, NReq=10639848.
 Integral accuracy reduced to 1.0D-05 until final iterations.
 Initial convergence to 1.0D-05 achieved.  Increase integral accuracy.
 SCF Done:  E(RB3LYP) =  -453.996589434     A.U. after   14 cycles
             Convg  =    0.2913D-08             -V/T =  2.0057
 Calling FoFJK, ICntrl=      2127 FMM=F ISym2X=0 I1Cent= 0 IOpClX= 0 NMat=1 NMatS=1 NMatT=0.
 ***** Axes restored to original set *****
 -------------------------------------------------------------------
 Center     Atomic                   Forces (Hartrees/Bohr)
 Number     Number              X              Y              Z
 -------------------------------------------------------------------
      1        6           0.002113726   -0.000668727   -0.001128709
      2        6          -0.006848073   -0.000990312   -0.000668369
      3        1          -0.000660876    0.000247408    0.000173113
      4        1          -0.000965496    0.000101776    0.000039156
      5        1          -0.000072992   -0.000445766    0.001150535
      6        6           0.012817246    0.001714100    0.000633559
      7        6          -0.000087621    0.001158974    0.000206728
      8        7           0.001894733   -0.000310758   -0.000205706
      9        1          -0.000447859   -0.000479189   -0.000203455
     10        7          -0.004569337   -0.002777574    0.000774957
     11        6          -0.002483793   -0.000100152   -0.000397699
     12        1          -0.000625898    0.000652845   -0.000054219
     13        1           0.001180240   -0.000450411   -0.000015406
     14        8           0.002042720    0.002249484    0.000042046
     15        8          -0.003286720    0.000098303   -0.000346530
 -------------------------------------------------------------------
 Cartesian Forces:  Max     0.012817246 RMS     0.002533524

 GradGradGradGradGradGradGradGradGradGradGradGradGradGradGradGradGradGrad
 Berny optimization.
 Using GEDIIS/GDIIS optimizer.
 Internal  Forces:  Max     0.005183930 RMS     0.001228125
 Search for a local minimum.
 Step number   2 out of a maximum of   79
 All quantities printed in internal units (Hartrees-Bohrs-Radians)
 Mixed Optimization -- RFO/linear search
 Update second derivatives using D2CorX and points    1    2
 DE= -6.15D-03 DEPred=-6.35D-03 R= 9.70D-01
 SS=  1.41D+00  RLast= 1.93D-01 DXNew= 5.0454D-01 5.7814D-01
 Trust test= 9.70D-01 RLast= 1.93D-01 DXMaxT set to 5.05D-01
 Use linear search instead of GDIIS.
     Eigenvalues ---    0.00857   0.01398   0.01546   0.01705   0.02130
     Eigenvalues ---    0.02138   0.02140   0.02149   0.02395   0.02589
     Eigenvalues ---    0.07160   0.07331   0.15863   0.15998   0.16000
     Eigenvalues ---    0.16000   0.16000   0.16215   0.22334   0.23594
     Eigenvalues ---    0.24576   0.24761   0.25000   0.25232   0.32276
     Eigenvalues ---    0.33265   0.34184   0.34298   0.34325   0.35282
     Eigenvalues ---    0.45460   0.45891   0.46426   0.49127   0.50911
     Eigenvalues ---    0.52767   0.57003   0.91864   0.954971000.00000
     Eigenvalues --- 1000.000001000.000001000.000001000.000001000.00000
     Eigenvalues --- 1000.000001000.000001000.000001000.000001000.00000
     Eigenvalues --- 1000.000001000.000001000.000001000.000001000.00000
     Eigenvalues --- 1000.000001000.000001000.000001000.000001000.00000
     Eigenvalues --- 1000.000001000.000001000.000001000.000001000.00000
     Eigenvalues --- 1000.000001000.000001000.000001000.00000
 RFO step:  Lambda=-5.16176685D-04 EMin= 8.57435327D-03
 Quartic linear search produced a step of  0.03083.
 Iteration  1 RMS(Cart)=  0.02269700 RMS(Int)=  0.00048898
 Iteration  2 RMS(Cart)=  0.00050538 RMS(Int)=  0.00001991
 Iteration  3 RMS(Cart)=  0.00000019 RMS(Int)=  0.00001991
 Variable       Old X    -DE/DX   Delta X   Delta X   Delta X     New X
                                 (Linear)    (Quad)   (Total)
    R1        2.84160  -0.00026   0.00063  -0.00076  -0.00013   2.84147
    R2        2.07415   0.00005   0.00018   0.00017   0.00035   2.07449
    R3        2.06406   0.00041  -0.00013   0.00121   0.00108   2.06514
    R4        2.07105  -0.00048   0.00003  -0.00144  -0.00142   2.06964
    R5        2.79459  -0.00518  -0.00053  -0.01614  -0.01668   2.77792
    R6        2.56544  -0.00112   0.00106  -0.00234  -0.00127   2.56417
    R7        2.64728   0.00370   0.00196   0.00776   0.00971   2.65699
    R8        2.35631   0.00109   0.00117   0.00126   0.00243   2.35874
    R9        2.62694  -0.00151   0.00142  -0.00317  -0.00174   2.62519
   R10        2.04779  -0.00026  -0.00013  -0.00075  -0.00089   2.04690
   R11        2.62371   0.00187   0.00120   0.00395   0.00515   2.62886
   R12        1.90587   0.00070  -0.00028   0.00157   0.00129   1.90717
   R13        2.62986  -0.00053   0.00160  -0.00055   0.00104   2.63090
   R14        1.91245   0.00077   0.00026   0.00173   0.00199   1.91444
   R15        2.35382  -0.00303   0.00117  -0.00331  -0.00214   2.35168
    A1        1.95282  -0.00050   0.00089  -0.00505  -0.00418   1.94864
    A2        1.92082  -0.00098  -0.00101  -0.00620  -0.00724   1.91358
    A3        1.94637   0.00018   0.00030   0.00289   0.00319   1.94957
    A4        1.86938   0.00020  -0.00062  -0.00214  -0.00280   1.86658
    A5        1.88210   0.00013  -0.00032   0.00055   0.00023   1.88233
    A6        1.88948   0.00104   0.00074   0.01039   0.01114   1.90062
    A7        2.05957  -0.00024  -0.00036  -0.00050  -0.00088   2.05868
    A8        2.16600  -0.00134   0.00028  -0.00496  -0.00471   2.16128
    A9        2.05762   0.00158   0.00009   0.00544   0.00549   2.06311
   A10        2.00698   0.00005  -0.00063   0.00057  -0.00009   2.00690
   A11        2.16179   0.00365   0.00097   0.01488   0.01586   2.17765
   A12        2.11439  -0.00370  -0.00034  -0.01542  -0.01576   2.09863
   A13        2.13652   0.00034   0.00050   0.00033   0.00083   2.13734
   A14        2.13135   0.00044  -0.00011   0.00379   0.00368   2.13503
   A15        2.01531  -0.00078  -0.00039  -0.00409  -0.00449   2.01082
   A16        2.16227  -0.00088   0.00013  -0.00399  -0.00387   2.15840
   A17        2.11426  -0.00056   0.00045  -0.00439  -0.00395   2.11031
   A18        2.00662   0.00145  -0.00058   0.00844   0.00785   2.01447
   A19        2.23323  -0.00145   0.00137  -0.00484  -0.00351   2.22971
   A20        2.03442   0.00028  -0.00038  -0.00032  -0.00072   2.03371
   A21        2.01536   0.00117  -0.00098   0.00536   0.00438   2.01973
   A22        1.96942   0.00036  -0.00146   0.00291   0.00144   1.97086
   A23        2.15096   0.00001   0.00071  -0.00067   0.00004   2.15100
   A24        2.16280  -0.00037   0.00075  -0.00223  -0.00148   2.16132
    D1        1.61010  -0.00075  -0.00152  -0.05991  -0.06140   1.54870
    D2       -1.52927  -0.00056  -0.00073  -0.04666  -0.04740  -1.57668
    D3       -0.46609  -0.00004  -0.00066  -0.04990  -0.05056  -0.51665
    D4        2.67773   0.00015   0.00013  -0.03665  -0.03656   2.64116
    D5       -2.56334  -0.00081  -0.00112  -0.06070  -0.06179  -2.62513
    D6        0.58048  -0.00062  -0.00033  -0.04745  -0.04779   0.53268
    D7        3.13019   0.00031   0.00095   0.02131   0.02231  -3.13069
    D8       -0.00423   0.00024   0.00118   0.01756   0.01874   0.01451
    D9       -0.01348   0.00013   0.00020   0.00889   0.00910  -0.00438
   D10        3.13528   0.00006   0.00044   0.00513   0.00554   3.14081
   D11        3.13232  -0.00010  -0.00080  -0.00948  -0.01027   3.12206
   D12       -0.00386  -0.00028  -0.00080  -0.01519  -0.01601  -0.01987
   D13       -0.00705   0.00009  -0.00001   0.00376   0.00377  -0.00328
   D14        3.13995  -0.00009  -0.00002  -0.00195  -0.00197   3.13798
   D15        0.02877  -0.00031  -0.00023  -0.01653  -0.01674   0.01203
   D16       -3.13427  -0.00009   0.00005  -0.00482  -0.00479  -3.13906
   D17       -3.11978  -0.00021  -0.00046  -0.01275  -0.01321  -3.13299
   D18        0.00037   0.00002  -0.00019  -0.00105  -0.00126  -0.00090
   D19        0.01692  -0.00023  -0.00014  -0.01178  -0.01192   0.00500
   D20       -3.13480  -0.00011  -0.00001  -0.00497  -0.00502  -3.13981
   D21       -3.12974  -0.00006  -0.00014  -0.00639  -0.00654  -3.13628
   D22        0.00172   0.00006  -0.00001   0.00041   0.00037   0.00210
   D23       -0.00389   0.00011   0.00011   0.00531   0.00539   0.00150
   D24        3.13516   0.00016  -0.00002   0.00774   0.00770  -3.14032
   D25       -3.13592   0.00001  -0.00002  -0.00105  -0.00111  -3.13703
   D26        0.00313   0.00006  -0.00015   0.00138   0.00120   0.00433
   D27       -0.02008   0.00020   0.00009   0.00954   0.00960  -0.01048
   D28        3.12407   0.00015   0.00021   0.00709   0.00727   3.13135
   D29       -3.14043  -0.00001  -0.00019  -0.00200  -0.00222   3.14054
   D30        0.00373  -0.00007  -0.00007  -0.00445  -0.00455  -0.00082
         Item               Value     Threshold  Converged?
 Maximum Force            0.005184     0.000450     NO 
 RMS     Force            0.001228     0.000300     NO 
 Maximum Displacement     0.098091     0.001800     NO 
 RMS     Displacement     0.022704     0.001200     NO 
 Predicted change in Energy=-2.602048D-04
 GradGradGradGradGradGradGradGradGradGradGradGradGradGradGradGradGradGrad

                          Input orientation:                          
 ---------------------------------------------------------------------
 Center     Atomic      Atomic             Coordinates (Angstroms)
 Number     Number       Type             X           Y           Z
 ---------------------------------------------------------------------
      1          6           0       -1.006329    3.039913   -0.041246
      2          6           0       -2.061685    1.968882   -0.048331
      3          1           0       -0.763423    3.362383    0.979596
      4          1           0       -1.372984    3.920407   -0.574693
      5          1           0       -0.079720    2.698559   -0.514896
      6          6           0       -3.469700    2.389151   -0.090752
      7          6           0       -1.790108    0.640329    0.000381
      8          7           0       -2.789131   -0.324861    0.015174
      9          1           0       -0.777544    0.256803    0.030218
     10          7           0       -4.403725    1.338247   -0.081282
     11          6           0       -4.147890   -0.029050   -0.023816
     12          1           0       -5.381460    1.601697   -0.112232
     13          1           0       -2.560518   -1.307120    0.053212
     14          8           0       -5.036439   -0.900214   -0.008869
     15          8           0       -3.857643    3.574644   -0.136393
 ---------------------------------------------------------------------
                    Distance matrix (angstroms):
                    1          2          3          4          5
     1  C    0.000000
     2  C    1.503641   0.000000
     3  H    1.097774   2.164247   0.000000
     4  H    1.092827   2.135373   1.760332   0.000000
     5  H    1.095204   2.162938   1.772461   1.780175   0.000000
     6  C    2.548360   1.470011   3.068674   2.641053   3.430393
     7  C    2.524688   1.356901   3.069613   3.356131   2.725298
     8  N    3.808316   2.407169   4.316175   4.513946   4.094258
     9  H    2.793413   2.141589   3.247483   3.760647   2.597361
    10  N    3.799944   2.425683   4.298184   4.012031   4.553624
    11  C    4.391839   2.888699   4.895230   4.858166   4.922502
    12  H    4.606004   3.340630   5.061459   4.653833   5.428968
    13  H    4.617480   3.315317   5.088417   5.397364   4.745795
    14  O    5.636261   4.133089   6.116000   6.081072   6.146242
    15  O    2.902582   2.410745   3.296162   2.546604   3.896601
                    6          7          8          9         10
     6  C    0.000000
     7  C    2.426461   0.000000
     8  N    2.800045   1.389192   0.000000
     9  H    3.436458   1.083175   2.094049   0.000000
    10  N    1.406020   2.706428   2.319945   3.785650   0.000000
    11  C    2.512393   2.451079   1.391133   3.382878   1.392213
    12  H    2.067697   3.719505   3.232341   4.798445   1.013079
    13  H    3.809167   2.094965   1.009229   2.371788   3.226990
    14  O    3.644351   3.593330   2.319914   4.413434   2.327290
    15  O    1.248189   3.592160   4.046088   4.530214   2.302762
                   11         12         13         14         15
    11  C    0.000000
    12  H    2.046668   0.000000
    13  H    2.039398   4.055404   0.000000
    14  O    1.244455   2.527703   2.509902   0.000000
    15  O    3.617116   2.493014   5.054710   4.629273   0.000000
 Stoichiometry    C5H6N2O2
 Framework group  C1[X(C5H6N2O2)]
 Deg. of freedom    39
 Full point group                 C1      NOp   1
 Largest Abelian subgroup         C1      NOp   1
 Largest concise Abelian subgroup C1      NOp   1
                         Standard orientation:                         
 ---------------------------------------------------------------------
 Center     Atomic      Atomic             Coordinates (Angstroms)
 Number     Number       Type             X           Y           Z
 ---------------------------------------------------------------------
      1          6           0        2.643417   -0.727023    0.009132
      2          6           0        1.157728   -0.495972   -0.007584
      3          1           0        3.034382   -0.774542    1.033825
      4          1           0        3.150075    0.104563   -0.486885
      5          1           0        2.913915   -1.659849   -0.496971
      6          6           0        0.676271    0.892953   -0.003255
      7          6           0        0.237980   -1.493591   -0.008110
      8          7           0       -1.129182   -1.247277   -0.000884
      9          1           0        0.518271   -2.539853   -0.014511
     10          7           0       -0.722377    1.036718   -0.005641
     11          6           0       -1.682868    0.028918    0.001703
     12          1           0       -1.079717    1.984682   -0.005041
     13          1           0       -1.792956   -2.007505    0.000093
     14          8           0       -2.909178    0.240509    0.009510
     15          8           0        1.411900    1.901329   -0.001528
 ---------------------------------------------------------------------
 Rotational constants (GHZ):      3.1526700      1.3790266      0.9651312
 Standard basis: 6-31G (6D, 7F)
 There are    93 symmetry adapted basis functions of A   symmetry.
 Integral buffers will be    131072 words long.
 Raffenetti 2 integral format.
 Two-electron integral symmetry is turned on.
    93 basis functions,   222 primitive gaussians,    93 cartesian basis functions
    33 alpha electrons       33 beta electrons
       nuclear repulsion energy       435.6966070786 Hartrees.
 NAtoms=   15 NActive=   15 NUniq=   15 SFac= 7.50D-01 NAtFMM=   80 NAOKFM=F Big=F
 One-electron integrals computed using PRISM.
 NBasis=    93 RedAO= T  NBF=    93
 NBsUse=    93 1.00D-06 NBFU=    93
 Initial guess read from the read-write file.
 B after Tr=     0.000000    0.000000    0.000000
         Rot=    1.000000    0.000000    0.000000    0.000000 Ang=   0.00 deg.
 Initial guess orbital symmetries:
       Occupied  (A) (A) (A) (A) (A) (A) (A) (A) (A) (A) (A) (A)
                 (A) (A) (A) (A) (A) (A) (A) (A) (A) (A) (A) (A)
                 (A) (A) (A) (A) (A) (A) (A) (A) (A)
       Virtual   (A) (A) (A) (A) (A) (A) (A) (A) (A) (A) (A) (A)
                 (A) (A) (A) (A) (A) (A) (A) (A) (A) (A) (A) (A)
                 (A) (A) (A) (A) (A) (A) (A) (A) (A) (A) (A) (A)
                 (A) (A) (A) (A) (A) (A) (A) (A) (A) (A) (A) (A)
                 (A) (A) (A) (A) (A) (A) (A) (A) (A) (A) (A) (A)
 Harris functional with IExCor=  402 diagonalized for initial guess.
 ExpMin= 1.61D-01 ExpMax= 5.48D+03 ExpMxC= 8.25D+02 IAcc=1 IRadAn=         1 AccDes= 0.00D+00
 HarFok:  IExCor=  402 AccDes= 0.00D+00 IRadAn=         1 IDoV= 1
 ScaDFX=  1.000000  1.000000  1.000000  1.000000
 FoFCou: FMM=F IPFlag=           0 FMFlag=      100000 FMFlg1=           0
         NFxFlg=           0 DoJE=T BraDBF=F KetDBF=T FulRan=T
         Omega=  0.000000  0.000000  1.000000  0.000000  0.000000 ICntrl=     500 IOpCl=  0
         NMat0=    1 NMatS0=    1 NMatT0=    0 NMatD0=    1 NMtDS0=    0 NMtDT0=    0
         I1Cent=           4 NGrid=           0.
 Petite list used in FoFCou.
 Requested convergence on RMS density matrix=1.00D-08 within 128 cycles.
 Requested convergence on MAX density matrix=1.00D-06.
 Requested convergence on             energy=1.00D-06.
 No special actions if energy rises.
 Keep R1 ints in memory in canonical form, NReq=10639848.
 Integral accuracy reduced to 1.0D-05 until final iterations.
 Initial convergence to 1.0D-05 achieved.  Increase integral accuracy.
 SCF Done:  E(RB3LYP) =  -453.996950502     A.U. after   13 cycles
             Convg  =    0.4816D-08             -V/T =  2.0057
 Calling FoFJK, ICntrl=      2127 FMM=F ISym2X=0 I1Cent= 0 IOpClX= 0 NMat=1 NMatS=1 NMatT=0.
 ***** Axes restored to original set *****
 -------------------------------------------------------------------
 Center     Atomic                   Forces (Hartrees/Bohr)
 Number     Number              X              Y              Z
 -------------------------------------------------------------------
      1        6           0.000679340   -0.000004523   -0.000629195
      2        6          -0.002050490   -0.000092804    0.000376807
      3        1          -0.000553517    0.000268939    0.000092419
      4        1           0.000351088    0.000191647   -0.000324203
      5        1          -0.000195074   -0.000140251    0.000523879
      6        6           0.002955937    0.001272064    0.000574909
      7        6          -0.000698380   -0.000559451   -0.000447224
      8        7           0.000951540    0.000476983   -0.000139618
      9        1           0.000083754    0.000099296   -0.000001918
     10        7          -0.001391872   -0.002970267    0.000290810
     11        6          -0.002099549    0.000604567   -0.000004659
     12        1           0.000466218    0.000247658   -0.000000420
     13        1           0.000091257    0.000074915   -0.000078894
     14        8           0.001383944    0.000885242   -0.000076615
     15        8           0.000025803   -0.000354017   -0.000156079
 -------------------------------------------------------------------
 Cartesian Forces:  Max     0.002970267 RMS     0.000916822

 GradGradGradGradGradGradGradGradGradGradGradGradGradGradGradGradGradGrad
 Berny optimization.
 Using GEDIIS/GDIIS optimizer.
 Internal  Forces:  Max     0.001839493 RMS     0.000478139
 Search for a local minimum.
 Step number   3 out of a maximum of   79
 All quantities printed in internal units (Hartrees-Bohrs-Radians)
 Mixed Optimization -- En-DIIS/RFO-DIIS
 Update second derivatives using D2CorX and points    1    2    3
 DE= -3.61D-04 DEPred=-2.60D-04 R= 1.39D+00
 SS=  1.41D+00  RLast= 1.40D-01 DXNew= 8.4853D-01 4.2063D-01
 Trust test= 1.39D+00 RLast= 1.40D-01 DXMaxT set to 5.05D-01
 Use linear search instead of GDIIS.
     Eigenvalues ---    0.00473   0.01385   0.01561   0.01717   0.02130
     Eigenvalues ---    0.02137   0.02143   0.02150   0.02382   0.02595
     Eigenvalues ---    0.07146   0.07417   0.15906   0.16000   0.16000
     Eigenvalues ---    0.16000   0.16107   0.16732   0.22372   0.23633
     Eigenvalues ---    0.24560   0.24783   0.25045   0.28473   0.30411
     Eigenvalues ---    0.33721   0.34222   0.34303   0.34316   0.35309
     Eigenvalues ---    0.45140   0.45541   0.46707   0.49451   0.50748
     Eigenvalues ---    0.52893   0.56999   0.92273   0.952161000.00000
     Eigenvalues --- 1000.000001000.000001000.000001000.000001000.00000
     Eigenvalues --- 1000.000001000.000001000.000001000.000001000.00000
     Eigenvalues --- 1000.000001000.000001000.000001000.000001000.00000
     Eigenvalues --- 1000.000001000.000001000.000001000.000001000.00000
     Eigenvalues --- 1000.000001000.000001000.000001000.000001000.00000
     Eigenvalues --- 1000.000001000.000001000.000001000.00000
 RFO step:  Lambda=-2.25386568D-04 EMin= 4.72526113D-03
 Quartic linear search produced a step of  0.61479.
 Iteration  1 RMS(Cart)=  0.03903762 RMS(Int)=  0.00157941
 Iteration  2 RMS(Cart)=  0.00163561 RMS(Int)=  0.00002267
 Iteration  3 RMS(Cart)=  0.00000224 RMS(Int)=  0.00002260
 Iteration  4 RMS(Cart)=  0.00000000 RMS(Int)=  0.00002260
 Variable       Old X    -DE/DX   Delta X   Delta X   Delta X     New X
                                 (Linear)    (Quad)   (Total)
    R1        2.84147   0.00042  -0.00008   0.00258   0.00251   2.84398
    R2        2.07449   0.00004   0.00021   0.00028   0.00049   2.07498
    R3        2.06514   0.00020   0.00067   0.00062   0.00129   2.06643
    R4        2.06964  -0.00035  -0.00087  -0.00135  -0.00222   2.06742
    R5        2.77792  -0.00184  -0.01025  -0.00609  -0.01635   2.76157
    R6        2.56417  -0.00024  -0.00078   0.00036  -0.00042   2.56375
    R7        2.65699   0.00183   0.00597   0.00576   0.01173   2.66872
    R8        2.35874  -0.00034   0.00149  -0.00003   0.00147   2.36020
    R9        2.62519  -0.00093  -0.00107  -0.00148  -0.00254   2.62265
   R10        2.04690   0.00004  -0.00055   0.00024  -0.00031   2.04660
   R11        2.62886   0.00044   0.00317   0.00141   0.00458   2.63344
   R12        1.90717  -0.00005   0.00080  -0.00065   0.00014   1.90731
   R13        2.63090  -0.00139   0.00064  -0.00292  -0.00228   2.62862
   R14        1.91444  -0.00039   0.00122  -0.00145  -0.00023   1.91422
   R15        2.35168  -0.00161  -0.00132  -0.00138  -0.00270   2.34898
    A1        1.94864  -0.00042  -0.00257  -0.00332  -0.00591   1.94273
    A2        1.91358   0.00057  -0.00445   0.00646   0.00199   1.91558
    A3        1.94957  -0.00015   0.00196  -0.00155   0.00041   1.94997
    A4        1.86658  -0.00014  -0.00172  -0.00194  -0.00370   1.86288
    A5        1.88233   0.00022   0.00014   0.00099   0.00113   1.88346
    A6        1.90062  -0.00008   0.00685  -0.00072   0.00613   1.90675
    A7        2.05868   0.00016  -0.00054   0.00093   0.00038   2.05906
    A8        2.16128  -0.00031  -0.00290  -0.00077  -0.00368   2.15760
    A9        2.06311   0.00015   0.00337  -0.00011   0.00323   2.06634
   A10        2.00690  -0.00004  -0.00005  -0.00033  -0.00041   2.00649
   A11        2.17765   0.00013   0.00975  -0.00138   0.00838   2.18603
   A12        2.09863  -0.00009  -0.00969   0.00169  -0.00799   2.09064
   A13        2.13734   0.00015   0.00051   0.00070   0.00119   2.13853
   A14        2.13503  -0.00020   0.00226  -0.00223   0.00003   2.13505
   A15        2.01082   0.00006  -0.00276   0.00153  -0.00123   2.00958
   A16        2.15840   0.00009  -0.00238   0.00101  -0.00139   2.15701
   A17        2.11031  -0.00015  -0.00243  -0.00002  -0.00245   2.10786
   A18        2.01447   0.00006   0.00483  -0.00098   0.00384   2.01832
   A19        2.22971  -0.00016  -0.00216   0.00131  -0.00091   2.22880
   A20        2.03371  -0.00026  -0.00044  -0.00328  -0.00374   2.02996
   A21        2.01973   0.00042   0.00269   0.00201   0.00468   2.02441
   A22        1.97086  -0.00018   0.00089  -0.00254  -0.00168   1.96918
   A23        2.15100  -0.00031   0.00002  -0.00141  -0.00138   2.14962
   A24        2.16132   0.00049  -0.00091   0.00396   0.00306   2.16438
    D1        1.54870  -0.00041  -0.03775  -0.06538  -0.10310   1.44560
    D2       -1.57668  -0.00043  -0.02914  -0.06947  -0.09862  -1.67529
    D3       -0.51665  -0.00034  -0.03108  -0.06507  -0.09614  -0.61279
    D4        2.64116  -0.00037  -0.02248  -0.06915  -0.09166   2.54951
    D5       -2.62513  -0.00053  -0.03799  -0.06752  -0.10549  -2.73062
    D6        0.53268  -0.00055  -0.02938  -0.07161  -0.10101   0.43167
    D7       -3.13069   0.00002   0.01371  -0.00081   0.01294  -3.11775
    D8        0.01451   0.00007   0.01152   0.00573   0.01727   0.03178
    D9       -0.00438   0.00004   0.00559   0.00303   0.00863   0.00425
   D10        3.14081   0.00009   0.00340   0.00957   0.01296  -3.12941
   D11        3.12206   0.00008  -0.00631   0.00504  -0.00125   3.12081
   D12       -0.01987   0.00000  -0.00984   0.00182  -0.00804  -0.02791
   D13       -0.00328   0.00005   0.00232   0.00094   0.00328   0.00000
   D14        3.13798  -0.00003  -0.00121  -0.00229  -0.00352   3.13446
   D15        0.01203  -0.00009  -0.01029  -0.00416  -0.01444  -0.00242
   D16       -3.13906   0.00001  -0.00295   0.00142  -0.00157  -3.14063
   D17       -3.13299  -0.00014  -0.00812  -0.01039  -0.01848   3.13171
   D18       -0.00090  -0.00004  -0.00078  -0.00480  -0.00561  -0.00650
   D19        0.00500  -0.00010  -0.00733  -0.00457  -0.01191  -0.00692
   D20       -3.13981  -0.00009  -0.00308  -0.00465  -0.00778   3.13559
   D21       -3.13628  -0.00003  -0.00402  -0.00156  -0.00558   3.14133
   D22        0.00210  -0.00001   0.00023  -0.00163  -0.00144   0.00066
   D23        0.00150   0.00006   0.00331   0.00350   0.00677   0.00827
   D24       -3.14032   0.00000   0.00473  -0.00196   0.00275  -3.13758
   D25       -3.13703   0.00004  -0.00068   0.00357   0.00284  -3.13420
   D26        0.00433  -0.00001   0.00074  -0.00189  -0.00119   0.00314
   D27       -0.01048   0.00005   0.00590   0.00100   0.00688  -0.00361
   D28        3.13135   0.00010   0.00447   0.00650   0.01094  -3.14090
   D29        3.14054  -0.00005  -0.00136  -0.00453  -0.00593   3.13461
   D30       -0.00082   0.00001  -0.00279   0.00097  -0.00186  -0.00268
         Item               Value     Threshold  Converged?
 Maximum Force            0.001839     0.000450     NO 
 RMS     Force            0.000478     0.000300     NO 
 Maximum Displacement     0.166188     0.001800     NO 
 RMS     Displacement     0.039048     0.001200     NO 
 Predicted change in Energy=-1.860120D-04
 GradGradGradGradGradGradGradGradGradGradGradGradGradGradGradGradGradGrad

                          Input orientation:                          
 ---------------------------------------------------------------------
 Center     Atomic      Atomic             Coordinates (Angstroms)
 Number     Number       Type             X           Y           Z
 ---------------------------------------------------------------------
      1          6           0       -1.006020    3.038654   -0.040961
      2          6           0       -2.065161    1.969536   -0.052395
      3          1           0       -0.834388    3.419488    0.974514
      4          1           0       -1.333050    3.889361   -0.645202
      5          1           0       -0.051940    2.667655   -0.426954
      6          6           0       -3.464185    2.390826   -0.080973
      7          6           0       -1.792095    0.641170   -0.014271
      8          7           0       -2.787973   -0.325362   -0.001536
      9          1           0       -0.779133    0.258337    0.001925
     10          7           0       -4.404429    1.337319   -0.059826
     11          6           0       -4.149664   -0.029526   -0.018335
     12          1           0       -5.380769    1.606476   -0.079895
     13          1           0       -2.554553   -1.307026    0.021831
     14          8           0       -5.035237   -0.901664   -0.002563
     15          8           0       -3.859704    3.574526   -0.129290
 ---------------------------------------------------------------------
                    Distance matrix (angstroms):
                    1          2          3          4          5
     1  C    0.000000
     2  C    1.504967   0.000000
     3  H    1.098035   2.161413   0.000000
     4  H    1.093508   2.138489   1.758671   0.000000
     5  H    1.094029   2.163498   1.772453   1.783660   0.000000
     6  C    2.542413   1.461359   3.014637   2.665652   3.440895
     7  C    2.523204   1.356678   3.100637   3.340591   2.702793
     8  N    3.807035   2.406574   4.335098   4.504997   4.077378
     9  H    2.789889   2.141266   3.307848   3.729603   2.552951
    10  N    3.800538   2.423206   4.260338   4.035958   4.566042
    11  C    4.392805   2.888349   4.885949   4.866616   4.922712
    12  H    4.603377   3.335539   5.006833   4.681364   5.444536
    13  H    4.613766   3.313740   5.119229   5.379540   4.718323
    14  O    5.635795   4.131298   6.105258   6.088769   6.144380
    15  O    2.904905   2.408794   3.224121   2.597935   3.925569
                    6          7          8          9         10
     6  C    0.000000
     7  C    2.421081   0.000000
     8  N    2.800224   1.387847   0.000000
     9  H    3.429853   1.083012   2.091926   0.000000
    10  N    1.412226   2.703884   2.319663   3.782960   0.000000
    11  C    2.516328   2.451118   1.393557   3.382862   1.391004
    12  H    2.070869   3.716813   3.234304   4.795751   1.012959
    13  H    3.809477   2.092394   1.009304   2.367039   3.228199
    14  O    3.648951   3.591441   2.319983   4.411355   2.326853
    15  O    1.248965   3.590656   4.046486   4.528161   2.303615
                   11         12         13         14         15
    11  C    0.000000
    12  H    2.048392   0.000000
    13  H    2.044015   4.060337   0.000000
    14  O    1.243027   2.533010   2.513704   0.000000
    15  O    3.617399   2.487830   5.055275   4.629710   0.000000
 Stoichiometry    C5H6N2O2
 Framework group  C1[X(C5H6N2O2)]
 Deg. of freedom    39
 Full point group                 C1      NOp   1
 Largest Abelian subgroup         C1      NOp   1
 Largest concise Abelian subgroup C1      NOp   1
                         Standard orientation:                         
 ---------------------------------------------------------------------
 Center     Atomic      Atomic             Coordinates (Angstroms)
 Number     Number       Type             X           Y           Z
 ---------------------------------------------------------------------
      1          6           0        2.642363   -0.729574    0.015400
      2          6           0        1.156227   -0.493418   -0.008196
      3          1           0        3.038775   -0.675793    1.037968
      4          1           0        3.149587    0.049545   -0.560322
      5          1           0        2.903289   -1.709329   -0.395572
      6          6           0        0.681570    0.888699   -0.003176
      7          6           0        0.236990   -1.491203   -0.010393
      8          7           0       -1.129242   -1.247229   -0.008056
      9          1           0        0.517576   -2.537187   -0.020628
     10          7           0       -0.722878    1.036528    0.004332
     11          6           0       -1.684077    0.031049    0.004748
     12          1           0       -1.074297    1.986573    0.007036
     13          1           0       -1.790031   -2.010122   -0.014985
     14          8           0       -2.909317    0.240485    0.010928
     15          8           0        1.412005    1.901753   -0.013143
 ---------------------------------------------------------------------
 Rotational constants (GHZ):      3.1550394      1.3790631      0.9653780
 Standard basis: 6-31G (6D, 7F)
 There are    93 symmetry adapted basis functions of A   symmetry.
 Integral buffers will be    131072 words long.
 Raffenetti 2 integral format.
 Two-electron integral symmetry is turned on.
    93 basis functions,   222 primitive gaussians,    93 cartesian basis functions
    33 alpha electrons       33 beta electrons
       nuclear repulsion energy       435.7561761423 Hartrees.
 NAtoms=   15 NActive=   15 NUniq=   15 SFac= 7.50D-01 NAtFMM=   80 NAOKFM=F Big=F
 One-electron integrals computed using PRISM.
 NBasis=    93 RedAO= T  NBF=    93
 NBsUse=    93 1.00D-06 NBFU=    93
 Initial guess read from the read-write file.
 B after Tr=     0.000000    0.000000    0.000000
         Rot=    1.000000    0.000000    0.000000    0.000000 Ang=   0.00 deg.
 Initial guess orbital symmetries:
       Occupied  (A) (A) (A) (A) (A) (A) (A) (A) (A) (A) (A) (A)
                 (A) (A) (A) (A) (A) (A) (A) (A) (A) (A) (A) (A)
                 (A) (A) (A) (A) (A) (A) (A) (A) (A)
       Virtual   (A) (A) (A) (A) (A) (A) (A) (A) (A) (A) (A) (A)
                 (A) (A) (A) (A) (A) (A) (A) (A) (A) (A) (A) (A)
                 (A) (A) (A) (A) (A) (A) (A) (A) (A) (A) (A) (A)
                 (A) (A) (A) (A) (A) (A) (A) (A) (A) (A) (A) (A)
                 (A) (A) (A) (A) (A) (A) (A) (A) (A) (A) (A) (A)
 Harris functional with IExCor=  402 diagonalized for initial guess.
 ExpMin= 1.61D-01 ExpMax= 5.48D+03 ExpMxC= 8.25D+02 IAcc=1 IRadAn=         1 AccDes= 0.00D+00
 HarFok:  IExCor=  402 AccDes= 0.00D+00 IRadAn=         1 IDoV= 1
 ScaDFX=  1.000000  1.000000  1.000000  1.000000
 FoFCou: FMM=F IPFlag=           0 FMFlag=      100000 FMFlg1=           0
         NFxFlg=           0 DoJE=T BraDBF=F KetDBF=T FulRan=T
         Omega=  0.000000  0.000000  1.000000  0.000000  0.000000 ICntrl=     500 IOpCl=  0
         NMat0=    1 NMatS0=    1 NMatT0=    0 NMatD0=    1 NMtDS0=    0 NMtDT0=    0
         I1Cent=           4 NGrid=           0.
 Petite list used in FoFCou.
 Requested convergence on RMS density matrix=1.00D-08 within 128 cycles.
 Requested convergence on MAX density matrix=1.00D-06.
 Requested convergence on             energy=1.00D-06.
 No special actions if energy rises.
 Keep R1 ints in memory in canonical form, NReq=10639848.
 Integral accuracy reduced to 1.0D-05 until final iterations.
 Initial convergence to 1.0D-05 achieved.  Increase integral accuracy.
 SCF Done:  E(RB3LYP) =  -453.997209288     A.U. after   12 cycles
             Convg  =    0.6259D-08             -V/T =  2.0057
 Calling FoFJK, ICntrl=      2127 FMM=F ISym2X=0 I1Cent= 0 IOpClX= 0 NMat=1 NMatS=1 NMatT=0.
 ***** Axes restored to original set *****
 -------------------------------------------------------------------
 Center     Atomic                   Forces (Hartrees/Bohr)
 Number     Number              X              Y              Z
 -------------------------------------------------------------------
      1        6          -0.000935303   -0.000056517    0.000256677
      2        6           0.002802245    0.000486448    0.000982459
      3        1          -0.000430098    0.000287584   -0.000130508
      4        1           0.000834117   -0.000044937   -0.000471209
      5        1           0.000069096   -0.000152438   -0.000055705
      6        6          -0.004734342    0.000679816   -0.000220346
      7        6          -0.000452880   -0.001343268   -0.001051037
      8        7           0.000241584    0.000768527    0.000318592
      9        1           0.000258346    0.000300931    0.000131852
     10        7           0.001025444   -0.000777519    0.000150810
     11        6          -0.000182854    0.001063473   -0.000434782
     12        1           0.000399142    0.000018629    0.000021709
     13        1          -0.000435489    0.000083144   -0.000009800
     14        8           0.000063901   -0.000328562    0.000129055
     15        8           0.001477091   -0.000985311    0.000382232
 -------------------------------------------------------------------
 Cartesian Forces:  Max     0.004734342 RMS     0.001000161

 GradGradGradGradGradGradGradGradGradGradGradGradGradGradGradGradGradGrad
 Berny optimization.
 Using GEDIIS/GDIIS optimizer.
 Internal  Forces:  Max     0.002028795 RMS     0.000486944
 Search for a local minimum.
 Step number   4 out of a maximum of   79
 All quantities printed in internal units (Hartrees-Bohrs-Radians)
 Mixed Optimization -- En-DIIS/RFO-DIIS
 Swaping is turned off.
 Update second derivatives using D2CorX and points    1    2    3    4
 DE= -2.59D-04 DEPred=-1.86D-04 R= 1.39D+00
 SS=  1.41D+00  RLast= 2.49D-01 DXNew= 8.4853D-01 7.4702D-01
 Trust test= 1.39D+00 RLast= 2.49D-01 DXMaxT set to 7.47D-01
     Eigenvalues ---    0.00186   0.01471   0.01560   0.01716   0.02130
     Eigenvalues ---    0.02137   0.02146   0.02164   0.02432   0.02609
     Eigenvalues ---    0.07197   0.07573   0.15891   0.16000   0.16000
     Eigenvalues ---    0.16007   0.16078   0.16774   0.22398   0.23962
     Eigenvalues ---    0.24620   0.24882   0.25020   0.29229   0.33572
     Eigenvalues ---    0.34189   0.34299   0.34317   0.35281   0.41284
     Eigenvalues ---    0.45550   0.46487   0.48862   0.50339   0.51597
     Eigenvalues ---    0.53148   0.57596   0.93103   0.962181000.00000
     Eigenvalues --- 1000.000001000.000001000.000001000.000001000.00000
     Eigenvalues --- 1000.000001000.000001000.000001000.000001000.00000
     Eigenvalues --- 1000.000001000.000001000.000001000.000001000.00000
     Eigenvalues --- 1000.000001000.000001000.000001000.000001000.00000
     Eigenvalues --- 1000.000001000.000001000.000001000.000001000.00000
[...]
 ! R5    R(2,6)                  1.4651         -DE/DX =    0.0                 !
 ! R6    R(2,7)                  1.3568         -DE/DX =    0.0                 !
 ! R7    R(6,10)                 1.4102         -DE/DX =    0.0                 !
 ! R8    R(6,15)                 1.2476         -DE/DX =    0.0                 !
 ! R9    R(7,8)                  1.3874         -DE/DX =    0.0                 !
 ! R10   R(7,9)                  1.0831         -DE/DX =    0.0                 !
 ! R11   R(8,11)                 1.3932         -DE/DX =    0.0                 !
 ! R12   R(8,13)                 1.0091         -DE/DX =    0.0                 !
 ! R13   R(10,11)                1.3898         -DE/DX =    0.0                 !
 ! R14   R(10,12)                1.0126         -DE/DX =    0.0                 !
 ! R15   R(11,14)                1.2433         -DE/DX =    0.0                 !
 ! A1    A(2,1,3)              110.8786         -DE/DX =    0.0                 !
 ! A2    A(2,1,4)              110.8769         -DE/DX =    0.0                 !
 ! A3    A(2,1,5)              111.3839         -DE/DX =    0.0                 !
 ! A4    A(3,1,4)              106.4244         -DE/DX =    0.0                 !
 ! A5    A(3,1,5)              108.5544         -DE/DX =    0.0                 !
 ! A6    A(4,1,5)              108.5537         -DE/DX =    0.0                 !
 ! A7    A(1,2,6)              117.838          -DE/DX =    0.0                 !
 ! A8    A(1,2,7)              123.799          -DE/DX =    0.0                 !
 ! A9    A(6,2,7)              118.363          -DE/DX =    0.0                 !
 ! A10   A(2,6,10)             114.9949         -DE/DX =    0.0                 !
 ! A11   A(2,6,15)             124.748          -DE/DX =    0.0                 !
 ! A12   A(10,6,15)            120.2571         -DE/DX =    0.0                 !
 ! A13   A(2,7,8)              122.3789         -DE/DX =    0.0                 !
 ! A14   A(2,7,9)              122.2253         -DE/DX =    0.0                 !
 ! A15   A(8,7,9)              115.3958         -DE/DX =    0.0                 !
 ! A16   A(7,8,11)             123.716          -DE/DX =    0.0                 !
 ! A17   A(7,8,13)             120.906          -DE/DX =    0.0                 !
 ! A18   A(11,8,13)            115.378          -DE/DX =    0.0                 !
 ! A19   A(6,10,11)            127.6575         -DE/DX =    0.0                 !
 ! A20   A(6,10,12)            116.3227         -DE/DX =    0.0                 !
 ! A21   A(11,10,12)           116.0198         -DE/DX =    0.0                 !
 ! A22   A(8,11,10)            112.8896         -DE/DX =    0.0                 !
 ! A23   A(8,11,14)            123.0584         -DE/DX =    0.0                 !
 ! A24   A(10,11,14)           124.052          -DE/DX =    0.0                 !
 ! D1    D(3,1,2,6)             59.0161         -DE/DX =    0.0                 !
 ! D2    D(3,1,2,7)           -120.9746         -DE/DX =    0.0                 !
 ! D3    D(4,1,2,6)            -58.9769         -DE/DX =    0.0                 !
 ! D4    D(4,1,2,7)            121.0324         -DE/DX =    0.0                 !
 ! D5    D(5,1,2,6)           -179.9794         -DE/DX =    0.0                 !
 ! D6    D(5,1,2,7)              0.0299         -DE/DX =    0.0                 !
 ! D7    D(1,2,6,10)           180.0009         -DE/DX =    0.0                 !
 ! D8    D(1,2,6,15)             0.013          -DE/DX =    0.0                 !
 ! D9    D(7,2,6,10)            -0.0079         -DE/DX =    0.0                 !
 ! D10   D(7,2,6,15)           180.0042         -DE/DX =    0.0                 !
 ! D11   D(1,2,7,8)            179.9881         -DE/DX =    0.0                 !
 ! D12   D(1,2,7,9)             -0.0031         -DE/DX =    0.0                 !
 ! D13   D(6,2,7,8)             -0.0025         -DE/DX =    0.0                 !
 ! D14   D(6,2,7,9)           -179.9938         -DE/DX =    0.0                 !
 ! D15   D(2,6,10,11)            0.0102         -DE/DX =    0.0                 !
 ! D16   D(2,6,10,12)         -179.9927         -DE/DX =    0.0                 !
 ! D17   D(15,6,10,11)        -180.0012         -DE/DX =    0.0                 !
 ! D18   D(15,6,10,12)          -0.0041         -DE/DX =    0.0                 !
 ! D19   D(2,7,8,11)             0.0127         -DE/DX =    0.0                 !
 ! D20   D(2,7,8,13)           179.9961         -DE/DX =    0.0                 !
 ! D21   D(9,7,8,11)          -179.9955         -DE/DX =    0.0                 !
 ! D22   D(9,7,8,13)            -0.0121         -DE/DX =    0.0                 !
 ! D23   D(7,8,11,10)           -0.0104         -DE/DX =    0.0                 !
 ! D24   D(7,8,11,14)          179.988          -DE/DX =    0.0                 !
 ! D25   D(13,8,11,10)        -179.9946         -DE/DX =    0.0                 !
 ! D26   D(13,8,11,14)           0.0037         -DE/DX =    0.0                 !
 ! D27   D(6,10,11,8)           -0.0014         -DE/DX =    0.0                 !
 ! D28   D(6,10,11,14)         180.0003         -DE/DX =    0.0                 !
 ! D29   D(12,10,11,8)        -179.9985         -DE/DX =    0.0                 !
 ! D30   D(12,10,11,14)          0.0032         -DE/DX =    0.0                 !
 --------------------------------------------------------------------------------
 GradGradGradGradGradGradGradGradGradGradGradGradGradGradGradGradGradGrad

                          Input orientation:                          
 ---------------------------------------------------------------------
 Center     Atomic      Atomic             Coordinates (Angstroms)
 Number     Number       Type             X           Y           Z
 ---------------------------------------------------------------------
      1          6           0       -1.009770    3.038272   -0.048555
      2          6           0       -2.063497    1.968206   -0.041806
      3          1           0       -1.094725    3.675771    0.839012
      4          1           0       -1.128142    3.697562   -0.916146
      5          1           0       -0.004134    2.607762   -0.073055
      6          6           0       -3.466290    2.389604   -0.010325
      7          6           0       -1.789968    0.639426   -0.062953
      8          7           0       -2.787601   -0.324692   -0.055729
      9          1           0       -0.776266    0.258735   -0.086520
     10          7           0       -4.404707    1.336972   -0.005509
     11          6           0       -4.148687   -0.028887   -0.026746
     12          1           0       -5.380792    1.605688    0.015982
     13          1           0       -2.558828   -1.307417   -0.071927
     14          8           0       -5.032773   -0.903107   -0.020798
     15          8           0       -3.852122    3.575876    0.011146
 ---------------------------------------------------------------------
                    Distance matrix (angstroms):
                    1          2          3          4          5
     1  C    0.000000
     2  C    1.501809   0.000000
     3  H    1.096083   2.151775   0.000000
     4  H    1.096079   2.151751   1.755612   0.000000
     5  H    1.094186   2.156615   1.778173   1.778162   0.000000
     6  C    2.541008   1.465058   2.828413   2.828109   3.469590
     7  C    2.522574   1.356806   3.242884   3.243170   2.657754
     8  N    3.803980   2.404558   4.435098   4.435386   4.043177
     9  H    2.789586   2.140387   3.554456   3.554944   2.472710
    10  N    3.797614   2.425085   4.139949   4.139749   4.580886
    11  C    4.388706   2.887321   4.878597   4.878642   4.912370
    12  H    4.600250   3.337545   4.830424   4.830097   5.469967
    13  H    4.613582   3.313000   5.273098   5.273460   4.674943
    14  O    5.632033   4.130554   6.100296   6.100324   6.133200
    15  O    2.893363   2.405532   2.880725   2.880060   3.968797
                    6          7          8          9         10
     6  C    0.000000
     7  C    2.424037   0.000000
     8  N    2.798229   1.387388   0.000000
     9  H    3.432585   1.083085   2.094470   0.000000
    10  N    1.410207   2.706794   2.319198   3.786125   0.000000
    11  C    2.512973   2.451838   1.393160   3.385192   1.389809
    12  H    2.068946   3.719397   3.233597   4.798589   1.012627
    13  H    3.807263   2.093185   1.009133   2.372883   3.225597
    14  O    3.646358   3.591235   2.318746   4.412715   2.326511
    15  O    1.247624   3.588971   4.043773   4.524804   2.306148
                   11         12         13         14         15
    11  C    0.000000
    12  H    2.047375   0.000000
    13  H    2.040669   4.056771   0.000000
    14  O    1.243344   2.533086   2.507286   0.000000
    15  O    3.617140   2.493691   5.052332   4.632089   0.000000
 Stoichiometry    C5H6N2O2
 Framework group  C1[X(C5H6N2O2)]
 Deg. of freedom    39
 Full point group                 C1      NOp   1
 Largest Abelian subgroup         C1      NOp   1
 Largest concise Abelian subgroup C1      NOp   1
                         Standard orientation:                         
 ---------------------------------------------------------------------
 Center     Atomic      Atomic             Coordinates (Angstroms)
 Number     Number       Type             X           Y           Z
 ---------------------------------------------------------------------
      1          6           0        2.639014   -0.728017    0.000011
      2          6           0        1.155243   -0.495954   -0.000069
      3          1           0        3.106356   -0.267603    0.878082
      4          1           0        3.106545   -0.266796   -0.877530
      5          1           0        2.875743   -1.796288   -0.000462
      6          6           0        0.679503    0.889711    0.000057
      7          6           0        0.235318   -1.493282   -0.000069
      8          7           0       -1.129673   -1.244995    0.000098
      9          1           0        0.517222   -2.539036   -0.000059
     10          7           0       -0.722860    1.038245   -0.000007
     11          6           0       -1.683116    0.033518    0.000023
     12          1           0       -1.073789    1.988119   -0.000038
     13          1           0       -1.794579   -2.004105    0.000036
     14          8           0       -2.908862    0.241971   -0.000044
     15          8           0        1.418169    1.895166   -0.000004
 ---------------------------------------------------------------------
 Rotational constants (GHZ):      3.1619748      1.3794032      0.9661250

 **********************************************************************

            Population analysis using the SCF density.

 **********************************************************************

 Orbital symmetries:
       Occupied  (A) (A) (A) (A) (A) (A) (A) (A) (A) (A) (A) (A)
                 (A) (A) (A) (A) (A) (A) (A) (A) (A) (A) (A) (A)
                 (A) (A) (A) (A) (A) (A) (A) (A) (A)
       Virtual   (A) (A) (A) (A) (A) (A) (A) (A) (A) (A) (A) (A)
                 (A) (A) (A) (A) (A) (A) (A) (A) (A) (A) (A) (A)
                 (A) (A) (A) (A) (A) (A) (A) (A) (A) (A) (A) (A)
                 (A) (A) (A) (A) (A) (A) (A) (A) (A) (A) (A) (A)
                 (A) (A) (A) (A) (A) (A) (A) (A) (A) (A) (A) (A)
 The electronic state is 1-A.
 Alpha  occ. eigenvalues --  -19.13597 -19.13260 -14.41004 -14.39510 -10.35284
 Alpha  occ. eigenvalues --  -10.31566 -10.27056 -10.22153 -10.19274  -1.08819
 Alpha  occ. eigenvalues --   -1.05477  -0.98999  -0.93857  -0.82925  -0.72634
 Alpha  occ. eigenvalues --   -0.69071  -0.67580  -0.58140  -0.57581  -0.53369
 Alpha  occ. eigenvalues --   -0.48831  -0.47913  -0.43680  -0.43208  -0.42529
 Alpha  occ. eigenvalues --   -0.41037  -0.40040  -0.39452  -0.36209  -0.29368
 Alpha  occ. eigenvalues --   -0.28559  -0.26665  -0.24623
 Alpha virt. eigenvalues --   -0.04749  -0.00090   0.05336   0.09340   0.10083
 Alpha virt. eigenvalues --    0.10518   0.12889   0.15525   0.18040   0.19455
 Alpha virt. eigenvalues --    0.19874   0.20802   0.26946   0.29504   0.32137
 Alpha virt. eigenvalues --    0.33539   0.38058   0.45308   0.47145   0.51597
 Alpha virt. eigenvalues --    0.53952   0.55042   0.56935   0.58948   0.59735
 Alpha virt. eigenvalues --    0.62550   0.62876   0.64262   0.67857   0.71247
 Alpha virt. eigenvalues --    0.71793   0.74359   0.76009   0.81472   0.84127
 Alpha virt. eigenvalues --    0.84890   0.85292   0.86624   0.89806   0.91532
 Alpha virt. eigenvalues --    0.92933   0.94769   0.96552   0.99318   1.03187
 Alpha virt. eigenvalues --    1.05190   1.08565   1.09114   1.12847   1.16061
 Alpha virt. eigenvalues --    1.17491   1.27586   1.32436   1.42289   1.45417
 Alpha virt. eigenvalues --    1.54472   1.61662   1.66072   2.02294   2.08056
          Condensed to atoms (all electrons):
              1          2          3          4          5          6
     1  C    5.082992   0.342512   0.372657   0.372638   0.361896  -0.041313
     2  C    0.342512   5.393177  -0.033921  -0.033915  -0.039181   0.141514
     3  H    0.372657  -0.033921   0.550701  -0.032296  -0.029441  -0.003750
     4  H    0.372638  -0.033915  -0.032296   0.550678  -0.029440  -0.003749
     5  H    0.361896  -0.039181  -0.029441  -0.029440   0.595790   0.006916
     6  C   -0.041313   0.141514  -0.003750  -0.003749   0.006916   4.820873
     7  C   -0.047628   0.523087   0.000324   0.000333  -0.005330  -0.030330
     8  N    0.004704  -0.026569  -0.000083  -0.000083   0.000131  -0.014612
     9  H   -0.004292  -0.016844   0.000093   0.000093   0.004316   0.003503
    10  N    0.005952  -0.177518   0.000079   0.000079  -0.000056  -0.004408
    11  C    0.000259  -0.005533  -0.000006  -0.000006  -0.000025   0.006236
    12  H   -0.000084   0.007714   0.000000   0.000000   0.000002  -0.008303
    13  H   -0.000095   0.002500   0.000002   0.000002  -0.000005   0.000027
    14  O    0.000001   0.000014   0.000000   0.000000   0.000000  -0.000264
    15  O    0.005333  -0.121687   0.002580   0.002589   0.000333   0.634028
              7          8          9         10         11         12
     1  C   -0.047628   0.004704  -0.004292   0.005952   0.000259  -0.000084
     2  C    0.523087  -0.026569  -0.016844  -0.177518  -0.005533   0.007714
     3  H    0.000324  -0.000083   0.000093   0.000079  -0.000006   0.000000
     4  H    0.000333  -0.000083   0.000093   0.000079  -0.000006   0.000000
     5  H   -0.005330   0.000131   0.004316  -0.000056  -0.000025   0.000002
     6  C   -0.030330  -0.014612   0.003503  -0.004408   0.006236  -0.008303
     7  C    4.939167   0.176799   0.362508   0.001777  -0.024952  -0.000882
     8  N    0.176799   7.512838  -0.048754  -0.181330   0.065032   0.005278
     9  H    0.362508  -0.048754   0.527167  -0.000226   0.002035   0.000017
    10  N    0.001777  -0.181330  -0.000226   7.945946   0.049831   0.292027
    11  C   -0.024952   0.065032   0.002035   0.049831   4.587455  -0.016624
    12  H   -0.000882   0.005278   0.000017   0.292027  -0.016624   0.357677
    13  H   -0.018878   0.310103  -0.003965   0.005942  -0.010500  -0.000078
    14  O    0.001286  -0.112978  -0.000070  -0.109419   0.651521   0.002335
    15  O    0.003859  -0.000001  -0.000056  -0.124482   0.000546   0.004770
             13         14         15
     1  C   -0.000095   0.000001   0.005333
     2  C    0.002500   0.000014  -0.121687
     3  H    0.000002   0.000000   0.002580
     4  H    0.000002   0.000000   0.002589
     5  H   -0.000005   0.000000   0.000333
     6  C    0.000027  -0.000264   0.634028
     7  C   -0.018878   0.001286   0.003859
     8  N    0.310103  -0.112978  -0.000001
     9  H   -0.003965  -0.000070  -0.000056
    10  N    0.005942  -0.109419  -0.124482
    11  C   -0.010500   0.651521   0.000546
    12  H   -0.000078   0.002335   0.004770
    13  H    0.359615   0.004623   0.000003
    14  O    0.004623   7.991416  -0.000013
    15  O    0.000003  -0.000013   8.026983
 Mulliken atomic charges:
              1
     1  C   -0.455531
     2  C    0.044650
     3  H    0.173061
     4  H    0.173077
     5  H    0.134093
     6  C    0.493633
     7  C    0.118862
     8  N   -0.690475
     9  H    0.174475
    10  N   -0.704195
    11  C    0.694732
    12  H    0.356152
    13  H    0.350706
    14  O   -0.428452
    15  O   -0.434785
 Sum of Mulliken atomic charges =   0.00000
 Mulliken charges with hydrogens summed into heavy atoms:
              1
     1  C    0.024700
     2  C    0.044650
     6  C    0.493633
     7  C    0.293336
     8  N   -0.339770
    10  N   -0.348043
    11  C    0.694732
    14  O   -0.428452
    15  O   -0.434785
 Sum of Mulliken charges with hydrogens summed into heavy atoms =   0.00000
 Electronic spatial extent (au):  <R**2>=           1149.7617
 Charge=              0.0000 electrons
 Dipole moment (field-independent basis, Debye):
    X=              1.0209    Y=             -4.4542    Z=              0.0001  Tot=              4.5697
 Quadrupole moment (field-independent basis, Debye-Ang):
   XX=            -63.0848   YY=            -47.0213   ZZ=            -52.1169
   XY=             -3.2324   XZ=              0.0001   YZ=              0.0003
 Traceless Quadrupole moment (field-independent basis, Debye-Ang):
   XX=             -9.0105   YY=              7.0530   ZZ=              1.9575
   XY=             -3.2324   XZ=              0.0001   YZ=              0.0003
 Octapole moment (field-independent basis, Debye-Ang**2):
  XXX=             39.1002  YYY=            -18.9985  ZZZ=              0.0009  XYY=            -25.2148
  XXY=            -17.3605  XXZ=              0.0010  XZZ=             -1.8713  YZZ=              4.0364
  YYZ=             -0.0014  XYZ=             -0.0005
 Hexadecapole moment (field-independent basis, Debye-Ang**3):
 XXXX=          -1080.9925 YYYY=           -393.8838 ZZZZ=            -53.5817 XXXY=             18.8739
 XXXZ=             -0.0025 YYYX=            -15.0766 YYYZ=              0.0010 ZZZX=              0.0035
 ZZZY=             -0.0009 XXYY=           -223.8819 XXZZ=           -162.8473 YYZZ=            -84.6375
 XXYZ=             -0.0010 YYXZ=             -0.0015 ZZXY=              4.4271
 N-N= 4.358803089436D+02 E-N=-1.932033326418D+03  KE= 4.514507553672D+02
 1\1\GINC-LSQC07\FOpt\RB3LYP\6-31G\C5H6N2O2\LITAO\15-May-2015\0\\#opt b
 3lyp/6-31g\\Title Card Required\\0,1\C,-1.0097697932,3.0382722121,-0.0
 485554401\C,-2.0634974624,1.9682061603,-0.0418062079\H,-1.0947250937,3
 .6757706414,0.8390122622\H,-1.1281417897,3.6975618351,-0.9161463676\H,
 -0.0041335155,2.6077620517,-0.0730549113\C,-3.4662901237,2.3896043644,
 -0.0103252237\C,-1.7899675922,0.6394255069,-0.0629534844\N,-2.78760095
 03,-0.3246918345,-0.0557291275\H,-0.7762656137,0.2587350373,-0.0865199
 217\N,-4.4047068608,1.3369719464,-0.0055085764\C,-4.1486865424,-0.0288
 87093,-0.0267459984\H,-5.3807922716,1.6056878197,0.0159820784\H,-2.558
 8277048,-1.307417042,-0.0719271866\O,-5.0327727696,-0.9031072718,-0.02
 07977949\O,-3.8521219163,3.575875666,0.0111458999\\Version=EM64L-G09Re
 vA.01\State=1-A\HF=-453.9978893\RMSD=4.365e-09\RMSF=1.189e-05\Dipole=1
 .6574502,-0.6954181,-0.039402\Quadrupole=3.4574933,-4.9148022,1.457308
 9,-4.8883163,-0.0965729,0.0148874\PG=C01 [X(C5H6N2O2)]\\@


 ADAM SMITH SAID, "THE REAL PRICE OF ANYTHING IS THE TOIL AND TROUBLE
 OF ACQUIRING IT."  BUT IN ALL UNDERTAKINGS WITH NATURE WE SHOULD FIRST
 READ CAREFULLY THE SMALL PRINT IN THE CONTRACT. THIS MIGHT DISCLOSE
 THAT THE REAL PRICE IS TO BE PAID BY THOSE WHO INHERIT THE DEPLETION
 AND DESPOILATION THAT FOLLOWS.
                               -- E. R. HARRISON IN "COSMOLOGY" (1980)
 Job cpu time:  0 days  0 hours  5 minutes 47.5 seconds.
 File lengths (MBytes):  RWF=      9 Int=      0 D2E=      0 Chk=      2 Scr=      1
 Normal termination of Gaussian 09 at Fri May 15 11:10:58 2015.
