44
  This energy is 1.4822e-321 and Call times are: 19053
C	-2.81208	-1.77879	-1.02675
C	-1.42629	-1.71994	-0.509736
O	-0.846477	-2.73084	-0.137734
H	-3.17067	-2.83066	-0.997439
H	-2.84462	-1.41716	-2.07603
H	-3.4816	-1.15323	-0.399572
N	-0.859125	-0.512012	-0.469628
C	0.483186	-0.294217	0.00744094
C	0.606832	1.16497	0.400786
O	-0.245413	1.9826	0.0587378
H	-1.3522	0.307856	-0.748244
H	0.641057	-0.889439	0.897868
C	1.52855	-0.642952	-1.07548
H	1.36324	-0.0309831	-1.98777
H	2.56322	-0.476542	-0.711411
H	1.4268	-1.71404	-1.35578
N	1.66702	1.52219	1.15205
C	1.86156	2.8866	1.58417
H	2.34201	0.844476	1.42467
H	2.78997	2.97869	2.18983
H	1.00232	3.22817	2.20569
H	1.94588	3.56843	0.707149
C	905.259	0.555008	2.20115
C	906.063	-0.331596	1.33019
O	905.874	-1.54005	1.3107
H	904.531	-0.0570976	2.77559
H	904.703	1.29315	1.58615
H	905.919	1.09169	2.91484
N	906.998	0.260194	0.58282
C	907.859	-0.468742	-0.314131
C	909.084	0.38404	-0.579819
O	909.1	1.57486	-0.273974
H	907.162	1.24198	0.629289
H	908.189	-1.37614	0.175198
C	907.14	-0.794802	-1.64247
H	906.802	0.138276	-2.14147
H	907.8	-1.35619	-2.3354
H	906.244	-1.41879	-1.43411
N	910.154	-0.215405	-1.13926
C	911.369	0.513958	-1.41817
H	910.124	-1.18171	-1.37293
H	912.13	-0.152657	-1.87929
H	911.796	0.938651	-0.480964
H	911.169	1.35637	-2.11943
