44
  This energy is 1.48714e-321 and Call times are: 13005
C	-1.81731	-0.870678	-2.83997
C	-1.27562	0.135605	-1.89914
O	-1.3703	1.33315	-2.13026
H	-2.27266	-0.351377	-3.71109
H	-2.59659	-1.48253	-2.33879
H	-1.00339	-1.53359	-3.20195
N	-0.680767	-0.338206	-0.801858
C	-0.105777	0.516072	0.206321
C	0.899992	-0.302447	0.992256
O	0.925103	-1.52802	0.896499
H	-0.584193	-1.31654	-0.639168
H	0.432235	1.32041	-0.279119
C	-1.19001	1.07722	1.15325
H	-1.74043	0.249368	1.64905
H	-0.750733	1.73556	1.93068
H	-1.92116	1.67376	0.56527
N	1.77159	0.362795	1.77569
C	2.7726	-0.331679	2.5515
H	1.73982	1.35516	1.83423
H	3.39094	0.388921	3.13084
H	3.44788	-0.917828	1.88692
H	2.29435	-1.03845	3.26769
C	619	2.71517	-1.23012
C	619.431	1.30071	-1.29845
O	618.942	0.529053	-2.11213
H	618.214	2.89687	-1.99485
H	619.86	3.38747	-1.43231
H	618.583	2.94034	-0.225813
N	620.368	0.923629	-0.425708
C	620.889	-0.418779	-0.369767
C	621.501	-0.624168	1.00229
O	621.721	0.332865	1.74247
H	620.738	1.55433	0.251548
H	620.07	-1.11891	-0.472646
C	621.952	-0.655862	-1.46624
H	622.79	0.0645099	-1.35812
H	622.355	-1.68858	-1.42613
H	621.491	-0.501187	-2.46634
N	621.772	-1.88813	1.38301
C	622.345	-2.18147	2.67627
H	621.581	-2.6497	0.772545
H	622.495	-3.27658	2.80069
H	621.675	-1.82444	3.49225
H	623.331	-1.6769	2.79315
