44
  This energy is 1.38427e-319 and Call times are: 66261
C	-2.37883	-1.94776	-1.63509
C	-1.30971	-0.923957	-1.63807
O	-0.866827	-0.474925	-2.68627
H	-2.65347	-2.19505	-2.68356
H	-3.27742	-1.561	-1.10994
H	-2.024	-2.87039	-1.12935
N	-0.861296	-0.531354	-0.443436
C	0.17537	0.456916	-0.283831
C	0.780875	0.278501	1.09485
O	0.2199	-0.412536	1.94315
H	-1.20982	-0.925931	0.402599
H	0.954523	0.27029	-1.01196
C	-0.384197	1.88888	-0.437072
H	-1.18373	2.0767	0.310978
H	0.411412	2.65233	-0.314906
H	-0.825915	2.00636	-1.4506
N	1.95873	0.884192	1.34343
C	2.61639	0.761116	2.62348
H	2.40039	1.43331	0.64155
H	3.57084	1.33227	2.63174
H	2.84473	-0.306222	2.84685
H	1.9661	1.15301	3.43878
C	3145.4	-1.14609	-2.01702
C	3144.01	-0.654731	-1.83086
O	3143.3	-0.401213	-2.79008
H	3145.62	-1.21805	-3.10413
H	3145.51	-2.15154	-1.55988
H	3146.12	-0.443888	-1.54918
N	3143.6	-0.501977	-0.569672
C	3142.28	-0.0330298	-0.228364
C	3142.33	0.506168	1.188
O	3143.29	0.26816	1.91824
H	3144.2	-0.684152	0.203016
H	3142.02	0.787723	-0.883871
C	3141.24	-1.16769	-0.328949
H	3141.51	-2.00831	0.344295
H	3140.22	-0.810017	-0.0669481
H	3141.21	-1.55487	-1.37086
N	3141.3	1.26805	1.60295
C	3141.27	1.83455	2.93114
H	3140.54	1.45515	0.994683
H	3140.34	2.42702	3.08196
H	3142.14	2.50576	3.09477
H	3141.3	1.03102	3.70215
