44
  This energy is 1.08023e-319 and Call times are: 96921
C	-2.66806	2.10306	-0.764652
C	-2.11195	0.877496	-0.148274
O	-2.80538	0.14916	0.548271
H	-3.73728	2.20562	-0.478104
H	-2.59689	2.04104	-1.87096
H	-2.11321	2.99645	-0.408366
N	-0.824016	0.62345	-0.391292
C	-0.141445	-0.530113	0.138063
C	1.34692	-0.240995	0.11734
O	1.79403	0.708107	-0.523855
H	-0.262157	1.23992	-0.936461
H	-0.435096	-0.669561	1.17073
C	-0.448394	-1.79585	-0.693082
H	-0.146513	-1.64907	-1.75206
H	0.0754761	-2.686	-0.288135
H	-1.5418	-1.99613	-0.670933
N	2.15009	-1.04543	0.841073
C	3.57887	-0.83977	0.891036
H	1.76833	-1.80389	1.35898
H	4.06391	-1.60463	1.53677
H	3.81659	0.167958	1.30239
H	4.02195	-0.909711	-0.128751
C	4593.59	-1.10105	-1.91573
C	4592.47	-1.35038	-0.983589
O	4592.14	-2.4888	-0.680606
H	4594.02	-2.07335	-2.24772
H	4594.39	-0.51591	-1.4085
H	4593.23	-0.542655	-2.80605
N	4591.84	-0.271635	-0.505902
C	4590.73	-0.352671	0.410278
C	4589.97	0.952199	0.328506
O	4590.45	1.93518	-0.225914
H	4592.1	0.649729	-0.783022
H	4590.07	-1.14566	0.0898385
C	4591.22	-0.595345	1.85784
H	4591.9	0.219671	2.1831
H	4590.37	-0.658418	2.56589
H	4591.78	-1.55349	1.90413
N	4588.73	0.984382	0.863529
C	4587.92	2.17937	0.822432
H	4588.35	0.176372	1.30154
H	4586.94	2.00597	1.31575
H	4587.73	2.49112	-0.230672
H	4588.43	3.01945	1.34542
