44
  This energy is 8.09378e-320 and Call times are: 95787
C	-1.47538	-0.747496	3.06441
C	-0.818473	-1.15531	1.80213
O	-0.492179	-2.31783	1.60574
H	-1.58669	-1.63539	3.72405
H	-2.48157	-0.327883	2.85385
H	-0.85972	0.01411	3.58773
N	-0.602011	-0.188671	0.907077
C	0.0267394	-0.429704	-0.367052
C	0.573255	0.890692	-0.874115
O	0.230078	1.95272	-0.358213
H	-0.846084	0.759798	1.09085
H	0.865092	-1.09973	-0.224568
C	-0.974886	-1.01672	-1.3865
H	-1.83398	-0.327114	-1.52976
H	-0.49401	-1.20367	-2.36863
H	-1.36881	-1.98305	-1.00285
N	1.45894	0.852196	-1.88905
C	2.04156	2.05821	-2.42966
H	1.72944	-0.0176396	-2.28835
H	2.74357	1.81849	-3.2585
H	2.6044	2.60983	-1.64215
H	1.2494	2.73423	-2.82546
C	4534.78	-1.55758	2.27983
C	4536.08	-0.958663	1.91395
O	4536.95	-0.783657	2.75243
H	4534.77	-1.78116	3.36877
H	4534.62	-2.50199	1.71782
H	4533.95	-0.849446	2.05172
N	4536.24	-0.620823	0.632098
C	4537.45	-0.0285289	0.123839
C	4537.11	0.682014	-1.1726
O	4536.04	0.47755	-1.7415
H	4535.51	-0.741636	-0.0356233
H	4537.8	0.7174	0.826716
C	4538.54	-1.09735	-0.123433
H	4538.18	-1.86135	-0.844436
H	4539.47	-0.644696	-0.51468
H	4538.78	-1.61136	0.833503
N	4538.02	1.55511	-1.66006
C	4537.78	2.28684	-2.88212
H	4538.88	1.71211	-1.18127
H	4538.64	2.95214	-3.11702
H	4536.86	2.91586	-2.79055
H	4537.63	1.58739	-3.73689
