44
  This energy is 4.5543e-320 and Call times are: 107169
C	-1.40049	-2.66705	1.74688
C	-0.24981	-1.9919	1.10554
O	0.884143	-2.43894	1.2095
H	-1.04148	-3.56796	2.29033
H	-2.13705	-2.98115	0.977697
H	-1.89128	-1.98263	2.47051
N	-0.521667	-0.877932	0.421783
C	0.491807	-0.110443	-0.256934
C	-0.0448231	1.29308	-0.460412
O	-1.23946	1.53816	-0.303579
H	-1.44537	-0.50792	0.368823
H	1.3648	-0.0397745	0.379439
C	0.857863	-0.741876	-1.6187
H	-0.0401402	-0.813467	-2.26876
H	1.63809	-0.153511	-2.14392
H	1.24851	-1.77002	-1.45605
N	0.835806	2.25655	-0.795386
C	0.418498	3.62438	-0.998098
H	1.79959	2.03962	-0.910645
H	1.28696	4.26444	-1.26891
H	-0.0443775	4.0353	-0.0717466
H	-0.333524	3.68856	-1.81756
C	5074.12	2.85771	0.884449
C	5075.39	2.15532	0.585079
O	5076.44	2.76675	0.494985
H	5074.32	3.9463	0.990075
H	5073.68	2.47783	1.83374
H	5073.39	2.70373	0.0593622
N	5075.31	0.833426	0.416054
C	5076.45	0.0125527	0.120182
C	5075.95	-1.27571	-0.505588
O	5074.77	-1.58181	-0.451776
H	5074.44	0.350826	0.463175
H	5077.07	0.518357	-0.613415
C	5077.27	-0.296795	1.3961
H	5076.63	-0.815075	2.14679
H	5078.15	-0.928562	1.17187
H	5077.63	0.654997	1.84556
N	5076.86	-2.0536	-1.13642
C	5076.47	-3.29249	-1.77187
H	5077.81	-1.78505	-1.17527
H	5077.35	-3.78761	-2.23381
H	5075.72	-3.10718	-2.56957
H	5076.03	-3.99305	-1.02957
