44
  This energy is 1.51777e-319 and Call times are: 36315
C	1.29833	0.646035	3.16593
C	0.519112	-0.188947	2.22421
O	0.0998546	-1.29008	2.55318
H	1.41088	0.104516	4.13027
H	0.771822	1.60571	3.35203
H	2.30689	0.852718	2.74996
N	0.310609	0.324308	1.00953
C	-0.429415	-0.368052	-0.0150826
C	-0.0354874	0.223417	-1.35457
O	0.581882	1.28499	-1.41584
H	0.682228	1.20996	0.744088
H	-0.13685	-1.41039	-0.016939
C	-1.95304	-0.228468	0.199879
H	-2.2496	0.842122	0.201899
H	-2.52587	-0.760539	-0.587229
H	-2.22857	-0.664334	1.18489
N	-0.366848	-0.465976	-2.46405
C	-0.0229849	0.01342	-3.78242
H	-0.86019	-1.3267	-2.39328
H	-0.383232	-0.691717	-4.56361
H	1.0813	0.117809	-3.88686
H	-0.483346	1.01033	-3.97062
C	1727.09	2.89545	1.34164
C	1727.22	1.5286	0.786592
O	1728.31	1.03784	0.548528
H	1728.11	3.3306	1.47225
H	1726.59	2.86367	2.32885
H	1726.51	3.53975	0.64855
N	1726.07	0.876679	0.559676
C	1726.03	-0.459861	0.0225065
C	1724.65	-0.675319	-0.578622
O	1723.73	0.102143	-0.335633
H	1725.19	1.29829	0.730489
H	1726.75	-0.541694	-0.777281
C	1726.3	-1.51538	1.11736
H	1725.56	-1.42815	1.93658
H	1726.27	-2.54563	0.707138
H	1727.31	-1.34597	1.55055
N	1724.49	-1.73095	-1.39989
C	1723.22	-2.00875	-2.02761
H	1725.25	-2.34445	-1.58971
H	1723.28	-2.91896	-2.66353
H	1722.9	-1.15486	-2.66965
H	1722.43	-2.17415	-1.25961
