44
  This energy is 3.02912e-320 and Call times are: 74619
C	-0.122692	3.47897	0.0884844
C	-0.680656	2.14808	0.418045
O	-1.65035	2.03356	1.15498
H	-0.712949	4.26392	0.609365
H	-0.176625	3.65599	-1.00631
H	0.934579	3.54402	0.421491
N	-0.0651745	1.09574	-0.126129
C	-0.491163	-0.262204	0.100476
C	0.679999	-1.17521	-0.206169
O	1.66469	-0.753362	-0.809699
H	0.74166	1.20042	-0.701452
H	-0.737482	-0.383591	1.14769
C	-1.69851	-0.629175	-0.79102
H	-1.44253	-0.502873	-1.86463
H	-2.02919	-1.67408	-0.618968
H	-2.54925	0.0474981	-0.557576
N	0.60834	-2.45003	0.224783
C	1.68064	-3.38862	-0.010554
H	-0.193918	-2.77041	0.717704
H	1.4327	-4.38455	0.418278
H	2.62593	-3.03075	0.458063
H	1.86205	-3.51239	-1.10278
C	3539.55	1.13833	1.94628
C	3538.88	0.965712	0.6411
O	3539.31	1.49728	-0.371612
H	3540.44	1.79316	1.81541
H	3539.89	0.154127	2.33754
H	3538.86	1.61125	2.67598
N	3537.78	0.209929	0.639099
C	3537.01	-0.0506703	-0.552757
C	3535.61	-0.466626	-0.127495
O	3535.38	-0.775892	1.03901
H	3537.42	-0.193808	1.47601
H	3536.92	0.866328	-1.12129
C	3537.66	-1.16254	-1.40724
H	3537.75	-2.10163	-0.820696
H	3537.07	-1.36563	-2.32582
H	3538.68	-0.846169	-1.71136
N	3534.65	-0.462461	-1.06607
C	3533.29	-0.832108	-0.751167
H	3534.86	-0.202176	-2.00298
H	3532.64	-0.767271	-1.65542
H	3532.87	-0.155988	0.0281255
H	3533.24	-1.87553	-0.363214
