44
  This energy is 5.61802e-320 and Call times are: 26991
C	-1.52539	-1.37881	2.81037
C	-1.46599	-1.12854	1.35262
O	-2.24828	-1.67209	0.585112
H	-2.34522	-2.09787	3.02647
H	-1.72604	-0.431314	3.35334
H	-0.565693	-1.81105	3.16405
N	-0.515739	-0.289816	0.933179
C	-0.332649	0.052919	-0.454567
C	1.0836	0.567301	-0.624505
O	1.76376	0.870836	0.353804
H	0.134077	0.12403	1.56516
H	-0.431384	-0.843015	-1.05426
C	-1.34613	1.12778	-0.906947
H	-1.24252	2.04527	-0.289209
H	-1.20805	1.39392	-1.97507
H	-2.37962	0.739212	-0.77639
N	1.57	0.656627	-1.87807
C	2.91191	1.12435	-2.13637
H	1.00643	0.399442	-2.6562
H	3.12389	1.12752	-3.2283
H	3.65999	0.467637	-1.63603
H	3.04838	2.1602	-1.74961
C	1283.58	3.12645	0.569464
C	1283.62	1.65929	0.762196
O	1282.87	1.10577	1.55723
H	1282.81	3.5648	1.24063
H	1283.32	3.36734	-0.482532
H	1284.56	3.57128	0.816302
N	1284.51	0.988363	0.0296301
C	1284.66	-0.442226	0.105754
C	1286.04	-0.788889	-0.421127
O	1286.7	0.039497	-1.04411
H	1285.13	1.45405	-0.593248
H	1284.62	-0.745941	1.14408
C	1283.58	-1.1712	-0.720399
H	1283.63	-0.856782	-1.78494
H	1283.7	-2.27293	-0.663859
H	1282.57	-0.908056	-0.325288
N	1286.52	-2.02277	-0.162421
C	1287.83	-2.43824	-0.613908
H	1285.97	-2.67646	0.34949
H	1288.03	-3.48612	-0.304371
H	1288.62	-1.78196	-0.183917
H	1287.9	-2.38022	-1.72432
