44
  This energy is 1.47404e-319 and Call times are: 104817
C	0.336888	2.67714	2.20127
C	-0.0784014	2.10612	0.900237
O	-0.703211	2.77325	0.0871877
H	-0.0141113	3.72978	2.26918
H	1.44351	2.66089	2.29044
H	-0.109404	2.09497	3.03484
N	0.261088	0.834715	0.675194
C	-0.0715632	0.1408	-0.543269
C	-0.0158856	-1.34809	-0.261591
O	0.511793	-1.77453	0.763852
H	0.744753	0.292917	1.35744
H	-1.08905	0.385234	-0.820849
C	0.907639	0.503012	-1.68216
H	1.95058	0.251557	-1.39377
H	0.6543	-0.0294427	-2.62189
H	0.858235	1.59633	-1.87803
N	-0.582322	-2.1761	-1.16134
C	-0.588213	-3.60795	-0.971679
H	-1.01068	-1.81116	-1.98143
H	-1.09878	-4.11489	-1.81996
H	-1.12043	-3.87743	-0.0307391
H	0.452498	-3.99977	-0.904044
C	4966.5	3.13968	0.11308
C	4966.31	1.76761	0.635502
O	4967.03	1.32655	1.52695
H	4967.35	3.62334	0.648461
H	4965.58	3.74092	0.275816
H	4966.73	3.10748	-0.972112
N	4965.34	1.04992	0.077359
C	4965.03	-0.300036	0.478722
C	4964.27	-0.963739	-0.656011
O	4963.81	-0.294944	-1.5757
H	4964.78	1.41022	-0.668144
H	4965.96	-0.843335	0.619481
C	4964.18	-0.324625	1.7689
H	4963.23	0.234203	1.62117
H	4963.94	-1.36257	2.08086
H	4964.74	0.165482	2.59212
N	4964.16	-2.30583	-0.62758
C	4963.46	-3.02568	-1.67105
H	4964.55	-2.82989	0.121592
H	4963.47	-4.11908	-1.46701
H	4963.95	-2.84941	-2.65834
H	4962.4	-2.69095	-1.74272
