44
  This energy is 7.51474e-320 and Call times are: 33501
C	-1.2198	3.25921	-0.12559
C	-0.134149	2.28448	0.124341
O	1.00965	2.65549	0.349223
H	-0.806536	4.29003	-0.0758414
H	-2.01384	3.15292	0.643191
H	-1.6569	3.09547	-1.1331
N	-0.474672	0.994226	0.083689
C	0.470085	-0.0709114	0.306722
C	-0.0978679	-1.33424	-0.310267
O	-1.27818	-1.39223	-0.649858
H	-1.40383	0.704012	-0.129324
H	1.39191	0.162279	-0.210906
C	0.729403	-0.286225	1.81454
H	-0.218471	-0.524597	2.34258
H	1.45653	-1.10557	1.98986
H	1.14413	0.646626	2.25492
N	0.740702	-2.37369	-0.490077
C	0.292132	-3.61299	-1.08094
H	1.69409	-2.30468	-0.215266
H	1.12766	-4.34473	-1.14175
H	-0.0971669	-3.43921	-2.11026
H	-0.525886	-4.06435	-0.474067
C	1594.51	0.935341	-1.83144
C	1593.06	1.01494	-1.53926
O	1592.35	1.8369	-2.09748
H	1594.78	1.70957	-2.58352
H	1594.76	-0.0652317	-2.2407
H	1595.1	1.11569	-0.906657
N	1592.59	0.150668	-0.637516
C	1591.2	0.105638	-0.248549
C	1591.12	-0.578686	1.10202
O	1592.08	-1.20126	1.55141
H	1593.19	-0.494674	-0.168251
H	1590.84	1.11783	-0.127419
C	1590.35	-0.661033	-1.28584
H	1590.73	-1.6988	-1.40811
H	1589.28	-0.69748	-0.989516
H	1590.42	-0.15045	-2.27099
N	1589.97	-0.45958	1.79336
C	1589.8	-1.0671	3.09306
H	1589.21	0.054387	1.41579
H	1588.79	-0.857482	3.49772
H	1590.56	-0.670124	3.81194
H	1589.93	-2.17165	3.03044
