44
  This energy is 3.7549e-320 and Call times are: 2253
C	-0.53781	3.14838	1.38731
C	-0.637511	1.67213	1.43173
O	-1.02778	1.09447	2.43696
H	-0.855145	3.56757	2.36682
H	-1.199	3.55272	0.592227
H	0.510396	3.45548	1.18756
N	-0.274651	1.0197	0.324919
C	-0.316744	-0.416598	0.214957
C	0.6162	-0.825413	-0.908308
O	1.04829	0.00876042	-1.70158
H	0.0692252	1.50009	-0.477521
H	0.0618702	-0.850905	1.13153
C	-1.74939	-0.916739	-0.0757439
H	-2.13494	-0.468714	-1.01635
H	-1.78543	-2.02228	-0.160877
H	-2.42318	-0.609888	0.753711
N	0.967004	-2.12409	-0.988114
C	1.86003	-2.60372	-2.01702
H	0.612379	-2.78251	-0.332399
H	2.02464	-3.6991	-1.91556
H	2.8479	-2.0931	-1.94915
H	1.43732	-2.40479	-3.02841
C	118.018	-1.25949	-1.61207
C	117.16	-1.11321	-0.414823
O	117.378	-1.75758	0.601986
H	118.812	-2.00903	-1.40513
H	118.496	-0.288727	-1.86114
H	117.413	-1.60603	-2.4765
N	116.145	-0.25151	-0.514338
C	115.224	-0.000594199	0.565256
C	113.958	0.58457	-0.0291578
O	113.94	0.999238	-1.18655
H	115.961	0.245853	-1.35791
H	114.964	-0.942247	1.03177
C	115.825	0.975213	1.6017
H	116.091	1.93993	1.11959
H	115.118	1.1705	2.43444
H	116.752	0.535529	2.02881
N	112.857	0.611326	0.747688
C	111.603	1.1391	0.263143
H	112.89	0.264456	1.67927
H	110.819	1.07532	1.0499
H	111.253	0.567041	-0.626754
H	111.714	2.20677	-0.034827
