44
  This energy is 1.01496e-319 and Call times are: 64665
C	2.38847	-2.37332	0.888081
C	1.97665	-1.14768	0.16739
O	2.7966	-0.449234	-0.41256
H	3.48954	-2.49877	0.799938
H	1.88918	-3.26199	0.447852
H	2.12069	-2.29379	1.96275
N	0.674792	-0.853036	0.194394
C	0.121897	0.30569	-0.460198
C	-1.21525	0.612087	0.185862
O	-1.76303	-0.210382	0.917511
H	0.0208533	-1.41418	0.694813
H	0.773272	1.15266	-0.285754
C	-0.063276	0.06144	-1.97452
H	-0.731501	-0.808534	-2.14984
H	-0.488684	0.951721	-2.48167
H	0.923112	-0.16308	-2.4358
N	-1.76343	1.81951	-0.0542124
C	-3.02833	2.20421	0.527344
H	-1.30116	2.47404	-0.64339
H	-3.31088	3.23204	0.209541
H	-2.97145	2.18455	1.63983
H	-3.83556	1.5048	0.210498
C	3067.45	2.3426	2.49404
C	3066.56	1.3586	1.83028
O	3065.49	1.03443	2.32633
H	3066.98	2.67828	3.44335
H	3067.6	3.22455	1.83692
H	3068.43	1.87977	2.72454
N	3067	0.849935	0.67669
C	3066.25	-0.117185	-0.0862053
C	3067.22	-0.840112	-1.00066
O	3068.36	-0.401541	-1.18784
H	3067.89	1.10023	0.29757
H	3065.83	-0.849273	0.590724
C	3065.14	0.560748	-0.919121
H	3065.58	1.31164	-1.61199
H	3064.56	-0.181078	-1.50766
H	3064.44	1.08776	-0.237828
N	3066.8	-1.98384	-1.57721
C	3067.66	-2.74668	-2.45352
H	3065.89	-2.32609	-1.4076
H	3067.14	-3.65227	-2.82839
H	3068.58	-3.07288	-1.91632
H	3067.97	-2.13374	-3.33024
