44
  This energy is 4.62692e-320 and Call times are: 69159
C	-1.98224	0.186457	2.85694
C	-1.81236	0.211712	1.38666
O	-2.77981	0.240652	0.638537
H	-3.06668	0.191672	3.10151
H	-1.50686	1.08055	3.31239
H	-1.52287	-0.731801	3.27971
N	-0.55633	0.195091	0.934473
C	-0.230582	0.216289	-0.469189
C	1.17632	-0.326161	-0.629221
O	1.9159	-0.452473	0.34489
H	0.222742	0.142066	1.55348
H	-0.901864	-0.449766	-0.996281
C	-0.316912	1.64736	-1.04512
H	0.372509	2.32814	-0.501649
H	-0.0668387	1.66729	-2.12579
H	-1.35198	2.03378	-0.92073
N	1.57213	-0.68167	-1.86735
C	2.88992	-1.21891	-2.11424
H	0.956469	-0.578503	-2.64166
H	3.02519	-1.44798	-3.19428
H	3.04652	-2.15741	-1.53463
H	3.67513	-0.489745	-1.80937
C	3279.65	-2.02341	-2.73296
C	3279.5	-0.770045	-1.96042
O	3278.86	0.175958	-2.40867
H	3279.12	-1.92071	-3.70742
H	3279.21	-2.87407	-2.17378
H	3280.72	-2.22678	-2.92357
N	3280.09	-0.734615	-0.764309
C	3280.03	0.414269	0.103636
C	3281.19	0.321942	1.07904
O	3281.82	-0.725013	1.20748
H	3280.63	-1.50113	-0.422695
H	3280.17	1.31001	-0.488235
C	3278.69	0.46977	0.871995
H	3278.55	-0.450972	1.47759
H	3278.64	1.35328	1.54114
H	3277.85	0.536043	0.146308
N	3281.51	1.42969	1.77689
C	3282.6	1.43967	2.71971
H	3280.99	2.26924	1.6536
H	3282.7	2.44105	3.19305
H	3283.56	1.19326	2.21038
H	3282.43	0.687024	3.52391
