44
  This energy is 5.78501e-320 and Call times are: 15147
C	0.788522	1.20916	-3.16896
C	0.0534629	1.29914	-1.88724
O	-0.619811	2.28269	-1.61188
H	0.616334	2.13675	-3.757
H	0.427684	0.33896	-3.75664
H	1.87719	1.10082	-2.97918
N	0.174083	0.258135	-1.06012
C	-0.48089	0.198666	0.222179
C	0.25858	-0.812462	1.0766
O	1.06592	-1.59078	0.572365
H	0.748942	-0.524578	-1.28336
H	-0.395373	1.16336	0.706037
C	-1.96366	-0.21087	0.077981
H	-2.04772	-1.20066	-0.419375
H	-2.47104	-0.25749	1.06346
H	-2.49397	0.537063	-0.550917
N	0.0139832	-0.808933	2.4018
C	0.680087	-1.72743	3.29559
H	-0.637541	-0.1665	2.79171
H	0.343925	-1.56936	4.34404
H	1.7841	-1.58313	3.25599
H	0.459321	-2.78188	3.01171
C	721.584	2.56485	2.01722
C	721.703	1.88346	0.708518
O	721.04	2.24281	-0.254453
H	720.834	3.38153	1.93913
H	722.562	3.00171	2.31149
H	721.252	1.84505	2.79482
N	722.563	0.863571	0.647042
C	722.788	0.103203	-0.556149
C	723.38	-1.23487	-0.15755
O	723.817	-1.41583	0.977293
H	723.076	0.561852	1.44618
H	721.837	-0.087609	-1.03564
C	723.746	0.842326	-1.51722
H	724.721	1.03706	-1.02188
H	723.922	0.259696	-2.44478
H	723.302	1.82133	-1.80075
N	723.387	-2.2155	-1.08184
C	723.919	-3.52601	-0.789134
H	723.022	-2.05157	-1.99241
H	723.836	-4.19117	-1.67683
H	723.363	-3.99636	0.0540901
H	724.993	-3.45868	-0.499892
