44
  This energy is 7.93025e-320 and Call times are: 3849
C	-2.5683	2.13684	-0.981782
C	-1.60725	1.04486	-1.25593
O	-1.64966	0.412789	-2.30244
H	-3.26497	2.23759	-1.84222
H	-2.02748	3.09657	-0.843022
H	-3.15641	1.90883	-0.067953
N	-0.708431	0.792454	-0.301571
C	0.291297	-0.238462	-0.422338
C	0.766483	-0.59245	0.973416
O	0.498714	0.130936	1.93094
H	-0.702623	1.29503	0.558845
H	-0.164973	-1.12285	-0.84865
C	1.48296	0.232	-1.28589
H	1.94826	1.13982	-0.846018
H	2.25455	-0.559441	-1.38106
H	1.12152	0.48939	-2.30532
N	1.46872	-1.73268	1.12425
C	1.95208	-2.15696	2.41751
H	1.66903	-2.3082	0.338198
H	2.50771	-3.11694	2.33409
H	1.10415	-2.30315	3.12524
H	2.63623	-1.39234	2.85164
C	190.575	-1.08361	-3.24981
C	191.261	-0.197564	-2.28245
O	192.15	0.562423	-2.64093
H	191.007	-0.92609	-4.26211
H	189.49	-0.848871	-3.28117
H	190.715	-2.14664	-2.96099
N	190.859	-0.282542	-1.0122
C	191.43	0.515082	0.0434336
C	191.14	-0.178148	1.36039
O	190.312	-1.08562	1.42408
H	190.154	-0.926544	-0.727766
H	192.505	0.546649	-0.0816949
C	190.839	1.94247	0.0527428
H	189.736	1.90633	0.180609
H	191.276	2.55939	0.864262
H	191.057	2.4391	-0.917724
N	191.834	0.221707	2.44373
C	191.634	-0.388486	3.73743
H	192.504	0.952898	2.37028
H	192.296	0.0787183	4.49943
H	191.861	-1.47851	3.69708
H	190.577	-0.267767	4.06947
