44
  This energy is 1.56816e-320 and Call times are: 25521
C	-1.11453	0.363698	3.27898
C	-0.135185	-0.128715	2.28418
O	0.921708	-0.635557	2.6343
H	-0.714863	0.194865	4.30251
H	-2.07497	-0.183324	3.17349
H	-1.29105	1.4507	3.13685
N	-0.469504	0.0180488	1.00002
C	0.378947	-0.411899	-0.0826156
C	-0.0331001	0.348915	-1.32785
O	-1.09355	0.970246	-1.36277
H	-1.32045	0.458966	0.727227
H	1.4026	-0.142049	0.144078
C	0.255416	-1.93293	-0.32413
H	-0.796109	-2.20635	-0.55576
H	0.907521	-2.26739	-1.157
H	0.558921	-2.47884	0.595661
N	0.81224	0.335023	-2.37724
C	0.509686	1.04063	-3.60066
H	1.66893	-0.167746	-2.32688
H	1.32612	0.906623	-4.34411
H	0.388629	2.13086	-3.40576
H	-0.437863	0.662644	-4.04838
C	1214.94	-1.39426	3.19034
C	1215.54	-1.25002	1.84442
O	1216.61	-1.77589	1.56842
H	1215.61	-2.01327	3.82605
H	1213.95	-1.89382	3.11738
H	1214.81	-0.397236	3.66314
N	1214.85	-0.516158	0.96537
C	1215.3	-0.285094	-0.382891
C	1214.6	0.954922	-0.903853
O	1213.63	1.42404	-0.312457
H	1213.99	-0.0688156	1.21126
H	1216.37	-0.0802308	-0.366373
C	1214.99	-1.4929	-1.29527
H	1213.9	-1.70068	-1.30936
H	1215.34	-1.3184	-2.33413
H	1215.51	-2.39499	-0.902276
N	1215.1	1.52957	-2.01849
C	1214.5	2.7199	-2.5812
H	1215.89	1.13894	-2.47854
H	1215.05	3.03717	-3.49643
H	1214.53	3.55785	-1.84754
H	1213.44	2.5367	-2.85436
