44
  This energy is 1.29613e-319 and Call times are: 23841
C	-1.40882	-2.00128	2.47714
C	-0.533606	-1.81147	1.29851
O	0.193985	-2.71036	0.899624
H	-1.26674	-3.02818	2.87856
H	-2.4731	-1.87253	2.18805
H	-1.14968	-1.26693	3.26868
N	-0.582514	-0.614	0.710271
C	0.209545	-0.278156	-0.445878
C	0.308271	1.23313	-0.519981
O	-0.430643	1.9453	0.157263
H	-1.15774	0.119582	1.06228
H	1.21093	-0.667011	-0.311386
C	-0.422883	-0.833413	-1.74158
H	-1.45035	-0.432986	-1.87607
H	0.184532	-0.576758	-2.63374
H	-0.4907	-1.94112	-1.67425
N	1.2447	1.75923	-1.33382
C	1.42011	3.18734	-1.46
H	1.83782	1.16611	-1.86828
H	2.23746	3.42129	-2.17726
H	1.6778	3.64005	-0.475173
H	0.483931	3.6675	-1.82634
C	1135.99	-1.64429	3.06819
C	1136.09	-0.417077	2.24577
O	1136.18	0.687007	2.76493
H	1136.01	-1.36738	4.14467
H	1136.85	-2.31476	2.85412
H	1135.04	-2.17881	2.8516
N	1136.06	-0.587164	0.921822
C	1136.14	0.51003	-0.00886287
C	1135.58	0.040527	-1.33417
O	1135.38	-1.15505	-1.54752
H	1135.96	-1.48934	0.511278
H	1135.52	1.32093	0.347019
C	1137.6	0.982337	-0.193563
H	1138.24	0.14781	-0.558091
H	1137.67	1.82719	-0.909449
H	1138.01	1.32254	0.784497
N	1135.27	0.979436	-2.25199
C	1134.72	0.627438	-3.53768
H	1135.43	1.9423	-2.05769
H	1134.54	1.53776	-4.15139
H	1133.75	0.0927494	-3.41331
H	1135.41	-0.0414784	-4.09631
