44
  This energy is 5.19214e-320 and Call times are: 81717
C	-3.32484	1.02568	-0.13979
C	-2.23634	0.0869301	-0.493501
O	-2.47005	-0.959753	-1.082
H	-4.296	0.608596	-0.484404
H	-3.15961	2.00648	-0.633304
H	-3.36509	1.16808	0.960686
N	-1.00268	0.44548	-0.130333
C	0.158694	-0.362613	-0.404247
C	1.25264	0.0516665	0.560578
O	1.15683	1.09073	1.21096
H	-0.828785	1.28687	0.3744
H	-0.0795783	-1.39985	-0.205672
C	0.638984	-0.181521	-1.86152
H	0.881916	0.883804	-2.06198
H	1.53301	-0.802452	-2.07587
H	-0.171675	-0.487226	-2.55831
N	2.31396	-0.768336	0.691714
C	3.3984	-0.462067	1.59526
H	2.36965	-1.60823	0.161896
H	4.17649	-1.25611	1.55915
H	3.02672	-0.382947	2.64256
H	3.87432	0.507924	1.3236
C	3872.55	-2.92987	1.79863
C	3871.67	-1.83951	1.32676
O	3870.47	-1.86771	1.53304
H	3871.94	-3.69879	2.31867
H	3873.31	-2.53079	2.5084
H	3873.07	-3.40371	0.937637
N	3872.26	-0.841183	0.666559
C	3871.54	0.290051	0.146428
C	3872.38	0.920686	-0.946334
O	3873.56	0.622484	-1.07818
H	3873.24	-0.844067	0.479508
H	3870.62	-0.05952	-0.30634
C	3871.24	1.32605	1.25382
H	3872.19	1.68204	1.71661
H	3870.68	2.19834	0.856795
H	3870.63	0.851451	2.04873
N	3871.77	1.79643	-1.77337
C	3872.49	2.43772	-2.85012
H	3870.81	2.01925	-1.65479
H	3871.82	3.12352	-3.41527
H	3872.9	1.67941	-3.55914
H	3873.35	3.03054	-2.45358
