44
  This energy is 3.20747e-320 and Call times are: 2043
C	1.73726	2.9409	-0.677614
C	0.550097	2.0682	-0.819903
O	-0.461687	2.46339	-1.38259
H	1.52391	3.92939	-1.13938
H	2.61044	2.48563	-1.19055
H	1.9763	3.09002	0.396429
N	0.648692	0.843202	-0.298348
C	-0.421544	-0.120072	-0.35773
C	-0.187053	-1.14498	0.734886
O	0.897187	-1.21299	1.31076
H	1.46784	0.543127	0.183201
H	-1.35753	0.380265	-0.144019
C	-0.476141	-0.815973	-1.73608
H	0.485883	-1.32767	-1.95239
H	-1.29919	-1.55822	-1.78531
H	-0.647138	-0.0544006	-2.52786
N	-1.21241	-1.95611	1.06158
C	-1.08568	-2.95437	2.09772
H	-2.08423	-1.88072	0.588842
H	-2.03559	-3.5208	2.21635
H	-0.837365	-2.47814	3.07383
H	-0.274913	-3.67721	1.85007
C	106.198	1.0735	3.15876
C	105.387	1.22255	1.92944
O	104.518	2.07941	1.84496
H	105.871	1.82701	3.90796
H	107.272	1.23632	2.9304
H	106.061	0.0581804	3.58695
N	105.655	0.372313	0.935596
C	104.951	0.393113	-0.321845
C	105.122	-0.965267	-0.973729
O	105.965	-1.75922	-0.560841
H	106.345	-0.340198	1.02741
H	103.895	0.536434	-0.131675
C	105.494	1.50076	-1.25209
H	106.578	1.35103	-1.44454
H	104.954	1.51968	-2.22115
H	105.364	2.49061	-0.762672
N	104.304	-1.27307	-2.00014
C	104.386	-2.54772	-2.67458
H	103.624	-0.619839	-2.31495
H	103.633	-2.60924	-3.49104
H	104.198	-3.38243	-1.96099
H	105.397	-2.69391	-3.11838
