44
  This energy is 6.40309e-321 and Call times are: 31023
C	1.69215	-2.75933	1.28407
C	0.49017	-2.12859	0.693636
O	-0.476494	-2.79947	0.359013
H	1.53903	-3.85891	1.34195
H	1.86659	-2.36644	2.3078
H	2.582	-2.55311	0.65273
N	0.528531	-0.802323	0.545652
C	-0.563715	-0.0462685	-0.0131044
C	-0.010393	1.27641	-0.506655
O	1.11293	1.65077	-0.175242
H	1.33329	-0.270329	0.795209
H	-0.957881	-0.578122	-0.869748
C	-1.67199	0.199401	1.03498
H	-1.26401	0.744618	1.91271
H	-2.51463	0.781167	0.608034
H	-2.0682	-0.777089	1.38943
N	-0.783432	2.00798	-1.33323
C	-0.335435	3.27484	-1.86288
H	-1.68667	1.6845	-1.59545
H	-1.11266	3.72319	-2.52027
H	0.595775	3.1437	-2.46029
H	-0.118246	3.99116	-1.03772
C	1474.17	1.82995	-2.92438
C	1474.68	1.22272	-1.67245
O	1475.88	1.21064	-1.41269
H	1475.03	2.22262	-3.5139
H	1473.48	2.66798	-2.69176
H	1473.64	1.06863	-3.53067
N	1473.76	0.691562	-0.85934
C	1474.1	0.0653974	0.394225
C	1472.96	-0.851747	0.779073
O	1471.87	-0.774254	0.20888
H	1472.8	0.68178	-1.09587
H	1474.98	-0.548369	0.255568
C	1474.34	1.1159	1.50258
H	1473.43	1.74423	1.64172
H	1474.59	0.637184	2.46914
H	1475.18	1.78217	1.20811
N	1473.18	-1.76161	1.74701
C	1472.16	-2.68476	2.17138
H	1474.07	-1.81333	2.19141
H	1472.53	-3.35097	2.97745
H	1471.82	-3.32033	1.31927
H	1471.27	-2.13441	2.55959
