44
  This energy is 1.23956e-319 and Call times are: 103851
C	-0.941605	3.00673	-1.48293
C	-0.494816	1.59797	-1.56651
O	-0.441347	1.01397	-2.64009
H	-1.19653	3.37223	-2.5014
H	-0.131264	3.64098	-1.06591
H	-1.84148	3.08532	-0.837183
N	-0.164495	1.01124	-0.413685
C	0.288643	-0.354426	-0.333398
C	0.0701691	-0.834998	1.08806
O	-0.176699	-0.0370998	1.99042
H	-0.240112	1.4886	0.457718
H	-0.321809	-0.966589	-0.985073
C	1.78191	-0.474741	-0.711288
H	2.40518	0.155038	-0.0411948
H	2.13406	-1.52502	-0.650673
H	1.92887	-0.118549	-1.7542
N	0.135004	-2.16153	1.31636
C	-0.0713435	-2.7122	2.63559
H	0.328869	-2.79159	0.571599
H	0.0242715	-3.82026	2.61856
H	-1.08657	-2.45381	3.01479
H	0.678614	-2.30645	3.35261
C	4921.7	1.19624	-1.84287
C	4921.11	0.667461	-0.5929
O	4921.81	0.38196	0.367323
H	4922.81	1.26152	-1.72837
H	4921.3	2.20994	-2.05606
H	4921.47	0.520782	-2.69258
N	4919.78	0.518048	-0.580993
C	4919.06	0.015392	0.561874
C	4917.73	-0.505174	0.0770875
O	4917.31	-0.230867	-1.0489
H	4919.23	0.726741	-1.37978
H	4919.61	-0.820364	0.98148
C	4918.85	1.11821	1.62312
H	4918.29	1.97433	1.18909
H	4918.3	0.734538	2.50456
H	4919.84	1.492	1.96925
N	4917.02	-1.29144	0.914064
C	4915.74	-1.84276	0.534439
H	4917.37	-1.50776	1.81851
H	4915.32	-2.45991	1.35792
H	4915.84	-2.48649	-0.36914
H	4915.02	-1.02945	0.299024
