44
  This energy is -1.0069 and Call times are: 171365
C	-2.58372	-1.50056	1.78476
C	-2.07259	-0.743363	0.620059
O	-2.77112	-0.550215	-0.365411
H	-3.62369	-1.83461	1.57798
H	-2.58632	-0.856196	2.68893
H	-1.9495	-2.39324	1.9691
N	-0.819109	-0.292523	0.709034
C	-0.168923	0.423192	-0.360344
C	1.32291	0.164988	-0.263777
O	1.80008	-0.414122	0.710213
H	-0.249204	-0.492924	1.50081
H	-0.503994	0.0270237	-1.31082
C	-0.463456	1.93659	-0.270306
H	-0.110387	2.34563	0.700297
H	0.0203548	2.49701	-1.09637
H	-1.56119	2.10133	-0.335106
N	2.0974	0.584533	-1.28366
C	3.52691	0.37793	-1.28187
H	1.69245	1.04762	-2.06509
H	3.98539	0.792918	-2.20643
H	3.76664	-0.70882	-1.22915
H	3.99519	0.877778	-0.403232
C	992.664	-0.425797	-0.525549
C	991.421	-0.679102	0.237958
O	991.376	-1.53928	1.10657
H	993.455	-1.12856	-0.183879
H	993.011	0.615267	-0.357056
H	992.486	-0.584915	-1.61001
N	990.367	0.0767375	-0.0768991
C	989.078	-0.0819451	0.5487
C	988.014	0.353349	-0.442017
O	988.324	0.906895	-1.49535
H	990.407	0.744802	-0.814399
H	988.91	-1.13048	0.761403
C	988.986	0.754653	1.84368
H	989.147	1.83171	1.62445
H	988.003	0.63009	2.34213
H	989.778	0.424464	2.55067
N	986.728	0.103644	-0.12839
C	985.648	0.476884	-1.01228
H	986.497	-0.348934	0.726688
H	984.666	0.186822	-0.577879
H	985.757	-0.0270444	-1.99994
H	985.644	1.57749	-1.18486
