44
  This energy is 0 and Call times are: 166101
C	2.61792	0.124301	-2.28992
C	1.98795	0.513857	-1.00831
O	2.62274	1.10264	-0.144152
H	3.68527	0.435097	-2.28395
H	2.10282	0.624096	-3.13705
H	2.56502	-0.976847	-2.42322
N	0.703013	0.185628	-0.854725
C	-0.0338209	0.459482	0.353845
C	-1.12048	-0.589928	0.493346
O	-1.35914	-1.37498	-0.422325
H	0.211026	-0.32976	-1.55056
H	0.626266	0.355562	1.20597
C	-0.649941	1.87517	0.315542
H	-1.33535	1.97893	-0.552492
H	-1.20832	2.10325	1.24651
H	0.16256	2.62616	0.205072
N	-1.8028	-0.632951	1.65465
C	-2.85068	-1.60105	1.88026
H	-1.59249	0.00795447	2.38546
H	-3.29038	-1.47554	2.89423
H	-2.45193	-2.63805	1.79708
H	-3.6639	-1.48252	1.12809
C	614.491	-1.25397	2.06063
C	615.251	-0.129998	1.46898
O	614.865	1.02502	1.58298
H	613.58	-0.858606	2.56009
H	615.113	-1.7823	2.81348
H	614.185	-1.96829	1.26752
N	616.368	-0.450053	0.810499
C	617.19	0.529587	0.144878
C	617.887	-0.150025	-1.01841
O	617.834	-1.37037	-1.15857
H	616.648	-1.39838	0.69124
H	616.557	1.306	-0.267229
C	618.225	1.13427	1.11847
H	618.881	0.339505	1.53345
H	618.855	1.90007	0.621316
H	617.693	1.61922	1.96561
N	618.555	0.63134	-1.89006
C	619.244	0.073939	-3.03034
H	618.583	1.6172	-1.76217
H	619.732	0.876786	-3.6263
H	618.532	-0.470663	-3.69205
H	620.029	-0.645036	-2.70208
