44
  This energy is -6.1598 and Call times are: 145447
C	1.10691	-1.9391	2.6697
C	0.922105	-1.70082	1.22049
O	1.47252	-2.40767	0.387536
H	1.79776	-2.79779	2.81557
H	0.13247	-2.17694	3.14576
H	1.54432	-1.03991	3.15264
N	0.130744	-0.679889	0.883117
C	-0.1106	-0.298282	-0.486076
C	-0.404117	1.18981	-0.517625
O	-0.568803	1.82147	0.524293
H	-0.277506	-0.0883067	1.57249
H	0.788864	-0.462025	-1.06641
C	-1.29171	-1.09589	-1.0811
H	-2.21716	-0.919979	-0.492345
H	-1.47864	-0.821019	-2.13941
H	-1.05841	-2.18229	-1.04046
N	-0.468272	1.78906	-1.72295
C	-0.737077	3.20239	-1.85109
H	-0.328173	1.26203	-2.55462
H	-0.749132	3.50495	-2.92139
H	0.0436027	3.79981	-1.32678
H	-1.72504	3.45675	-1.40346
C	5.6864	2.89314	1.75515
C	6.58744	1.75532	1.46421
O	7.72215	1.71402	1.91934
H	6.22004	3.63027	2.39368
H	4.7832	2.53789	2.29438
H	5.38093	3.39061	0.810534
N	6.09331	0.791578	0.683551
C	6.86457	-0.356931	0.277788
C	6.33994	-0.828437	-1.06535
O	5.30953	-0.354905	-1.54045
H	5.18212	0.859162	0.287286
H	7.89671	-0.0619334	0.135418
C	6.76393	-1.48719	1.32547
H	5.70632	-1.79745	1.46418
H	7.36475	-2.37201	1.03116
H	7.14575	-1.11738	2.3021
N	7.04695	-1.77327	-1.71608
C	6.62772	-2.27922	-3.00232
H	7.88043	-2.14133	-1.31744
H	7.33983	-3.04898	-3.37325
H	6.57985	-1.45605	-3.75158
H	5.61652	-2.7415	-2.93227
