10
  This energy is -0.00227512 and Call times are: 93
C	-0.166522	0.106938	-0.408135
O	0.843937	-0.574088	-0.478618
O	-0.668503	0.459738	0.774685
H	-0.66241	0.429181	-1.32299
H	-0.139108	0.112343	1.48379
C	3.93348	0.106938	-0.408135
O	4.94394	-0.574088	-0.478618
O	3.4315	0.459738	0.774685
H	3.43759	0.429181	-1.32299
H	3.96089	0.112343	1.48379
