 Entering Gaussian System, Link 0=g09
 Input=opt-g.gjf
 Output=opt-g.log
 Initial command:
 /usr/g09/l1.exe /scratch/litao/gaussian/Gau-25827.inp -scrdir=/scratch/litao/gaussian/
 Entering Link 1 = /usr/g09/l1.exe PID=     25828.
  
 Copyright (c) 1988,1990,1992,1993,1995,1998,2003,2009, Gaussian, Inc.
                  All Rights Reserved.
  
 This is part of the Gaussian(R) 09 program.  It is based on
 the Gaussian(R) 03 system (copyright 2003, Gaussian, Inc.),
 the Gaussian(R) 98 system (copyright 1998, Gaussian, Inc.),
 the Gaussian(R) 94 system (copyright 1995, Gaussian, Inc.),
 the Gaussian 92(TM) system (copyright 1992, Gaussian, Inc.),
 the Gaussian 90(TM) system (copyright 1990, Gaussian, Inc.),
 the Gaussian 88(TM) system (copyright 1988, Gaussian, Inc.),
 the Gaussian 86(TM) system (copyright 1986, Carnegie Mellon
 University), and the Gaussian 82(TM) system (copyright 1983,
 Carnegie Mellon University). Gaussian is a federally registered
 trademark of Gaussian, Inc.
  
 This software contains proprietary and confidential information,
 including trade secrets, belonging to Gaussian, Inc.
  
 This software is provided under written license and may be
 used, copied, transmitted, or stored only in accord with that
 written license.
  
 The following legend is applicable only to US Government
 contracts under FAR:
  
                    RESTRICTED RIGHTS LEGEND
  
 Use, reproduction and disclosure by the US Government is
 subject to restrictions as set forth in subparagraphs (a)
 and (c) of the Commercial Computer Software - Restricted
 Rights clause in FAR 52.227-19.
  
 Gaussian, Inc.
 340 Quinnipiac St., Bldg. 40, Wallingford CT 06492
  
  
 ---------------------------------------------------------------
 Warning -- This program may not be used in any manner that
 competes with the business of Gaussian, Inc. or will provide
 assistance to any competitor of Gaussian, Inc.  The licensee
 of this program is prohibited from giving any competitor of
 Gaussian, Inc. access to this program.  By using this program,
 the user acknowledges that Gaussian, Inc. is engaged in the
 business of creating and licensing software in the field of
 computational chemistry and represents and warrants to the
 licensee that it is not a competitor of Gaussian, Inc. and that
 it will not use this program in any manner prohibited above.
 ---------------------------------------------------------------
  

 Cite this work as:
 Gaussian 09, Revision A.01,
 M. J. Frisch, G. W. Trucks, H. B. Schlegel, G. E. Scuseria, 
 M. A. Robb, J. R. Cheeseman, G. Scalmani, V. Barone, B. Mennucci, 
 G. A. Petersson, H. Nakatsuji, M. Caricato, X. Li, H. P. Hratchian, 
 A. F. Izmaylov, J. Bloino, G. Zheng, J. L. Sonnenberg, M. Hada, 
 M. Ehara, K. Toyota, R. Fukuda, J. Hasegawa, M. Ishida, T. Nakajima, 
 Y. Honda, O. Kitao, H. Nakai, T. Vreven, J. A. Montgomery, Jr., 
 J. E. Peralta, F. Ogliaro, M. Bearpark, J. J. Heyd, E. Brothers, 
 K. N. Kudin, V. N. Staroverov, R. Kobayashi, J. Normand, 
 K. Raghavachari, A. Rendell, J. C. Burant, S. S. Iyengar, J. Tomasi, 
 M. Cossi, N. Rega, J. M. Millam, M. Klene, J. E. Knox, J. B. Cross, 
 V. Bakken, C. Adamo, J. Jaramillo, R. Gomperts, R. E. Stratmann, 
 O. Yazyev, A. J. Austin, R. Cammi, C. Pomelli, J. W. Ochterski, 
 R. L. Martin, K. Morokuma, V. G. Zakrzewski, G. A. Voth, 
 P. Salvador, J. J. Dannenberg, S. Dapprich, A. D. Daniels, 
 O. Farkas, J. B. Foresman, J. V. Ortiz, J. Cioslowski, 
 and D. J. Fox, Gaussian, Inc., Wallingford CT, 2009.
 
 ******************************************
 Gaussian 09:  EM64L-G09RevA.01  8-May-2009
                29-Apr-2015 
 ******************************************
 %nprocshared=1
 Will use up to    1 processors via shared memory.
 %mem=8GB
 %chk=opt-g.chk
 -----------------
 # opt b3lyp/6-31g
 -----------------
 1/14=-1,18=20,19=15,26=3,38=1/1,3;
 2/9=110,12=2,17=6,18=5,40=1/2;
 3/5=1,6=6,11=2,16=1,25=1,30=1,71=1,74=-5/1,2,3;
 4//1;
 5/5=2,38=5/2;
 6/7=2,8=2,9=2,10=2,28=1/1;
 7//1,2,3,16;
 1/14=-1,18=20,19=15/3(2);
 2/9=110/2;
 99//99;
 2/9=110/2;
 3/5=1,6=6,11=2,16=1,25=1,30=1,71=1,74=-5/1,2,3;
 4/5=5,16=3/1;
 5/5=2,38=5/2;
 7//1,2,3,16;
 1/14=-1,18=20,19=15/3(-5);
 2/9=110/2;
 6/7=2,8=2,9=2,10=2,19=2,28=1/1;
 99/9=1/99;
 -------------------
 Title Card Required
 -------------------
 Symbolic Z-matrix:
 Charge =  0 Multiplicity = 1
 C                     3.80772   0.86399   0.31216 
 O                     3.18498   1.56052   0.89436 
 N                     3.57155   0.62723  -0.99678 
 C                     4.37487  -0.18499  -1.72517 
 H                     2.80459   1.1051   -1.44416 
 N                     4.18382  -0.29367  -3.12131 
 H                     3.13161  -0.25704  -3.36104 
 H                     4.59874  -1.22668  -3.47423 
 N                     5.41511  -0.84419  -1.16956 
 C                     5.66227  -0.65672   0.1378 
 C                     4.88879   0.2092    0.89412 
 N                     5.42357   0.27222   2.12791 
 C                     6.5091   -0.52861   2.16164 
 N                     6.6489   -1.08728   0.94223 
 H                     7.14282  -0.70463   3.0238 
 H                     7.38061  -1.72586   0.67157 
 

 GradGradGradGradGradGradGradGradGradGradGradGradGradGradGradGradGradGrad
 Berny optimization.
 Initialization pass.
                           ----------------------------
                           !    Initial Parameters    !
                           ! (Angstroms and Degrees)  !
 --------------------------                            --------------------------
 ! Name  Definition              Value          Derivative Info.                !
 --------------------------------------------------------------------------------
 ! R1    R(1,2)                  1.1009         estimate D2E/DX2                !
 ! R2    R(1,3)                  1.351          estimate D2E/DX2                !
 ! R3    R(1,11)                 1.3915         estimate D2E/DX2                !
 ! R4    R(3,4)                  1.3548         estimate D2E/DX2                !
 ! R5    R(3,5)                  1.0083         estimate D2E/DX2                !
 ! R6    R(4,6)                  1.4133         estimate D2E/DX2                !
 ! R7    R(4,9)                  1.3511         estimate D2E/DX2                !
 ! R8    R(6,7)                  1.0798         estimate D2E/DX2                !
 ! R9    R(6,8)                  1.0804         estimate D2E/DX2                !
 ! R10   R(9,10)                 1.3437         estimate D2E/DX2                !
 ! R11   R(10,11)                1.3857         estimate D2E/DX2                !
 ! R12   R(10,14)                1.3438         estimate D2E/DX2                !
 ! R13   R(11,12)                1.3462         estimate D2E/DX2                !
 ! R14   R(12,13)                1.3494         estimate D2E/DX2                !
 ! R15   R(13,14)                1.3486         estimate D2E/DX2                !
 ! R16   R(13,15)                1.0844         estimate D2E/DX2                !
 ! R17   R(14,16)                1.0082         estimate D2E/DX2                !
 ! A1    A(2,1,3)              121.6273         estimate D2E/DX2                !
 ! A2    A(2,1,11)             121.0677         estimate D2E/DX2                !
 ! A3    A(3,1,11)             117.2948         estimate D2E/DX2                !
 ! A4    A(1,3,4)              121.487          estimate D2E/DX2                !
 ! A5    A(1,3,5)              118.6715         estimate D2E/DX2                !
 ! A6    A(4,3,5)              119.7734         estimate D2E/DX2                !
 ! A7    A(3,4,6)              119.8038         estimate D2E/DX2                !
 ! A8    A(3,4,9)              121.8658         estimate D2E/DX2                !
 ! A9    A(6,4,9)              118.2162         estimate D2E/DX2                !
 ! A10   A(4,6,7)              110.3912         estimate D2E/DX2                !
 ! A11   A(4,6,8)              109.7052         estimate D2E/DX2                !
 ! A12   A(7,6,8)              109.3303         estimate D2E/DX2                !
 ! A13   A(4,9,10)             118.274          estimate D2E/DX2                !
 ! A14   A(9,10,11)            121.0359         estimate D2E/DX2                !
 ! A15   A(9,10,14)            132.282          estimate D2E/DX2                !
 ! A16   A(11,10,14)           106.4577         estimate D2E/DX2                !
 ! A17   A(1,11,10)            119.9651         estimate D2E/DX2                !
 ! A18   A(1,11,12)            132.062          estimate D2E/DX2                !
 ! A19   A(10,11,12)           107.9237         estimate D2E/DX2                !
 ! A20   A(11,12,13)           108.3431         estimate D2E/DX2                !
 ! A21   A(12,13,14)           107.8576         estimate D2E/DX2                !
 ! A22   A(12,13,15)           125.8974         estimate D2E/DX2                !
 ! A23   A(14,13,15)           126.2348         estimate D2E/DX2                !
 ! A24   A(10,14,13)           109.4167         estimate D2E/DX2                !
 ! A25   A(10,14,16)           125.1053         estimate D2E/DX2                !
 ! A26   A(13,14,16)           125.4776         estimate D2E/DX2                !
 ! D1    D(2,1,3,4)            177.0562         estimate D2E/DX2                !
 ! D2    D(2,1,3,5)              0.0648         estimate D2E/DX2                !
 ! D3    D(11,1,3,4)            -1.7988         estimate D2E/DX2                !
 ! D4    D(11,1,3,5)          -178.7902         estimate D2E/DX2                !
 ! D5    D(2,1,11,10)         -179.6117         estimate D2E/DX2                !
 ! D6    D(2,1,11,12)           -2.5003         estimate D2E/DX2                !
 ! D7    D(3,1,11,10)           -0.7499         estimate D2E/DX2                !
 ! D8    D(3,1,11,12)          176.3615         estimate D2E/DX2                !
 ! D9    D(1,3,4,6)           -173.0925         estimate D2E/DX2                !
 ! D10   D(1,3,4,9)              2.953          estimate D2E/DX2                !
 ! D11   D(5,3,4,6)              3.8663         estimate D2E/DX2                !
 ! D12   D(5,3,4,9)            179.9119         estimate D2E/DX2                !
 ! D13   D(3,4,6,7)            -36.7225         estimate D2E/DX2                !
 ! D14   D(3,4,6,8)           -157.2693         estimate D2E/DX2                !
 ! D15   D(9,4,6,7)            147.0886         estimate D2E/DX2                !
 ! D16   D(9,4,6,8)             26.5418         estimate D2E/DX2                !
 ! D17   D(3,4,9,10)            -1.3594         estimate D2E/DX2                !
 ! D18   D(6,4,9,10)           174.7466         estimate D2E/DX2                !
 ! D19   D(4,9,10,11)           -1.2329         estimate D2E/DX2                !
 ! D20   D(4,9,10,14)         -174.9944         estimate D2E/DX2                !
 ! D21   D(9,10,11,1)            2.2973         estimate D2E/DX2                !
 ! D22   D(9,10,11,12)        -175.4491         estimate D2E/DX2                !
 ! D23   D(14,10,11,1)         177.4885         estimate D2E/DX2                !
 ! D24   D(14,10,11,12)         -0.2579         estimate D2E/DX2                !
 ! D25   D(9,10,14,13)         174.7842         estimate D2E/DX2                !
 ! D26   D(9,10,14,16)          -4.9797         estimate D2E/DX2                !
 ! D27   D(11,10,14,13)          0.3558         estimate D2E/DX2                !
 ! D28   D(11,10,14,16)       -179.4081         estimate D2E/DX2                !
 ! D29   D(1,11,12,13)        -177.3047         estimate D2E/DX2                !
 ! D30   D(10,11,12,13)          0.0653         estimate D2E/DX2                !
 ! D31   D(11,12,13,14)          0.1532         estimate D2E/DX2                !
 ! D32   D(11,12,13,15)       -178.7408         estimate D2E/DX2                !
 ! D33   D(12,13,14,10)         -0.3215         estimate D2E/DX2                !
 ! D34   D(12,13,14,16)        179.4413         estimate D2E/DX2                !
 ! D35   D(15,13,14,10)        178.5678         estimate D2E/DX2                !
 ! D36   D(15,13,14,16)         -1.6694         estimate D2E/DX2                !
 --------------------------------------------------------------------------------
 Trust Radius=3.00D-01 FncErr=1.00D-07 GrdErr=1.00D-06
 Number of steps in this run=  89 maximum allowed number of steps= 100.
 GradGradGradGradGradGradGradGradGradGradGradGradGradGradGradGradGradGrad

                          Input orientation:                          
 ---------------------------------------------------------------------
 Center     Atomic      Atomic             Coordinates (Angstroms)
 Number     Number       Type             X           Y           Z
 ---------------------------------------------------------------------
      1          6           0        3.807720    0.863993    0.312161
      2          8           0        3.184980    1.560520    0.894361
      3          7           0        3.571550    0.627228   -0.996777
      4          6           0        4.374870   -0.184990   -1.725170
      5          1           0        2.804590    1.105100   -1.444160
      6          7           0        4.183820   -0.293669   -3.121310
      7          1           0        3.131610   -0.257036   -3.361040
      8          1           0        4.598740   -1.226680   -3.474230
      9          7           0        5.415110   -0.844185   -1.169560
     10          6           0        5.662270   -0.656721    0.137798
     11          6           0        4.888790    0.209198    0.894120
     12          7           0        5.423570    0.272216    2.127910
     13          6           0        6.509100   -0.528610    2.161640
     14          7           0        6.648900   -1.087280    0.942228
     15          1           0        7.142820   -0.704626    3.023800
     16          1           0        7.380610   -1.725860    0.671569
 ---------------------------------------------------------------------
                    Distance matrix (angstroms):
                    1          2          3          4          5
     1  C    0.000000
     2  O    1.100869   0.000000
     3  N    1.350982   2.144032   0.000000
     4  C    2.360666   3.365202   1.354835   0.000000
     5  H    2.036926   2.412630   1.008336   2.051604   0.000000
     6  N    3.642850   4.534458   2.395113   1.413336   2.582956
     7  H    3.899517   4.627612   2.562266   2.055956   2.374192
     8  H    4.396974   5.371386   3.260348   2.048035   3.574543
     9  N    2.774360   3.875030   2.365084   1.351051   3.269546
    10  C    2.404647   3.409620   2.703127   2.313132   3.711191
    11  C    1.391454   2.174636   2.342085   2.698181   3.257926
    12  N    2.501623   2.862282   3.649614   4.019333   4.506932
    13  C    3.557720   4.125559   4.465508   4.447505   5.421641
    14  N    3.503820   4.360261   4.021114   3.619441   5.027932
    15  H    4.575636   5.032881   5.540112   5.521258   6.485215
    16  H    4.427421   5.334158   4.778006   4.141631   5.781920
                    6          7          8          9         10
     6  N    0.000000
     7  H    1.079796   0.000000
     8  H    1.080380   1.762241   0.000000
     9  N    2.372440   3.218960   2.474725   0.000000
    10  C    3.597139   4.336572   3.808240   1.343658   0.000000
    11  C    4.107741   4.627250   4.607424   2.376006   1.385680
    12  N    5.423239   5.971747   5.857560   3.481340   2.209173
    13  C    5.776823   6.479289   5.991645   3.520411   2.197605
    14  N    4.818587   5.619497   4.871108   2.457841   1.343848
    15  H    6.832784   7.553564   6.997805   4.537480   3.243968
    16  H    5.163000   6.039320   5.017532   2.833778   2.093003
                   11         12         13         14         15
    11  C    0.000000
    12  N    1.346179   0.000000
    13  C    2.185491   1.349383   0.000000
    14  N    2.186586   2.180712   1.348563   0.000000
    15  H    3.232841   2.170866   1.084390   2.173321   0.000000
    16  H    3.162775   3.153291   2.100773   1.008187   2.575355
                   16
    16  H    0.000000
 Stoichiometry    C5H5N5O
 Framework group  C1[X(C5H5N5O)]
 Deg. of freedom    42
 Full point group                 C1      NOp   1
 Largest Abelian subgroup         C1      NOp   1
 Largest concise Abelian subgroup C1      NOp   1
                         Standard orientation:                         
 ---------------------------------------------------------------------
 Center     Atomic      Atomic             Coordinates (Angstroms)
 Number     Number       Type             X           Y           Z
 ---------------------------------------------------------------------
      1          6           0       -0.272861    1.384233    0.019305
      2          8           0       -0.117313    2.473694   -0.008799
      3          7           0       -1.511663    0.845232    0.018940
      4          6           0       -1.699690   -0.496265   -0.005773
      5          1           0       -2.308066    1.463058   -0.008861
      6          7           0       -3.004066   -1.020189   -0.152830
      7          1           0       -3.717541   -0.407867    0.378181
      8          1           0       -3.037983   -2.027586    0.236042
      9          7           0       -0.663415   -1.362486    0.027876
     10          6           0        0.583340   -0.862463    0.059408
     11          6           0        0.805542    0.505012    0.032049
     12          7           0        2.135058    0.707589   -0.027524
     13          6           0        2.747687   -0.494650   -0.039531
     14          7           0        1.792944   -1.445803    0.009417
     15          1           0        3.818762   -0.662248   -0.064258
     16          1           0        1.957207   -2.440510    0.005382
 ---------------------------------------------------------------------
 Rotational constants (GHZ):      2.1146028      1.1001155      0.7249371
 Standard basis: 6-31G (6D, 7F)
 There are   109 symmetry adapted basis functions of A   symmetry.
 Integral buffers will be    131072 words long.
 Raffenetti 2 integral format.
 Two-electron integral symmetry is turned on.
   109 basis functions,   262 primitive gaussians,   109 cartesian basis functions
    39 alpha electrons       39 beta electrons
       nuclear repulsion energy       603.6528755927 Hartrees.
 NAtoms=   16 NActive=   16 NUniq=   16 SFac= 7.50D-01 NAtFMM=   80 NAOKFM=F Big=F
 One-electron integrals computed using PRISM.
 NBasis=   109 RedAO= T  NBF=   109
 NBsUse=   109 1.00D-06 NBFU=   109
 Harris functional with IExCor=  402 diagonalized for initial guess.
 ExpMin= 1.61D-01 ExpMax= 5.48D+03 ExpMxC= 8.25D+02 IAcc=1 IRadAn=         1 AccDes= 0.00D+00
 HarFok:  IExCor=  402 AccDes= 0.00D+00 IRadAn=         1 IDoV= 1
 ScaDFX=  1.000000  1.000000  1.000000  1.000000
 FoFCou: FMM=F IPFlag=           0 FMFlag=      100000 FMFlg1=           0
         NFxFlg=           0 DoJE=T BraDBF=F KetDBF=T FulRan=T
         Omega=  0.000000  0.000000  1.000000  0.000000  0.000000 ICntrl=     500 IOpCl=  0
         NMat0=    1 NMatS0=    1 NMatT0=    0 NMatD0=    1 NMtDS0=    0 NMtDT0=    0
         I1Cent=           4 NGrid=           0.
 Petite list used in FoFCou.
 Initial guess orbital symmetries:
       Occupied  (A) (A) (A) (A) (A) (A) (A) (A) (A) (A) (A) (A)
                 (A) (A) (A) (A) (A) (A) (A) (A) (A) (A) (A) (A)
                 (A) (A) (A) (A) (A) (A) (A) (A) (A) (A) (A) (A)
                 (A) (A) (A)
       Virtual   (A) (A) (A) (A) (A) (A) (A) (A) (A) (A) (A) (A)
                 (A) (A) (A) (A) (A) (A) (A) (A) (A) (A) (A) (A)
                 (A) (A) (A) (A) (A) (A) (A) (A) (A) (A) (A) (A)
                 (A) (A) (A) (A) (A) (A) (A) (A) (A) (A) (A) (A)
                 (A) (A) (A) (A) (A) (A) (A) (A) (A) (A) (A) (A)
                 (A) (A) (A) (A) (A) (A) (A) (A) (A) (A)
 The electronic state of the initial guess is 1-A.
 Requested convergence on RMS density matrix=1.00D-08 within 128 cycles.
 Requested convergence on MAX density matrix=1.00D-06.
 Requested convergence on             energy=1.00D-06.
 No special actions if energy rises.
 Keep R1 ints in memory in canonical form, NReq=19093204.
 Integral accuracy reduced to 1.0D-05 until final iterations.
 Initial convergence to 1.0D-05 achieved.  Increase integral accuracy.
 SCF Done:  E(RB3LYP) =  -542.285295724     A.U. after   16 cycles
             Convg  =    0.3070D-08             -V/T =  2.0033

 **********************************************************************

            Population analysis using the SCF density.

 **********************************************************************

 Orbital symmetries:
       Occupied  (A) (A) (A) (A) (A) (A) (A) (A) (A) (A) (A) (A)
                 (A) (A) (A) (A) (A) (A) (A) (A) (A) (A) (A) (A)
                 (A) (A) (A) (A) (A) (A) (A) (A) (A) (A) (A) (A)
                 (A) (A) (A)
       Virtual   (A) (A) (A) (A) (A) (A) (A) (A) (A) (A) (A) (A)
                 (A) (A) (A) (A) (A) (A) (A) (A) (A) (A) (A) (A)
                 (A) (A) (A) (A) (A) (A) (A) (A) (A) (A) (A) (A)
                 (A) (A) (A) (A) (A) (A) (A) (A) (A) (A) (A) (A)
                 (A) (A) (A) (A) (A) (A) (A) (A) (A) (A) (A) (A)
                 (A) (A) (A) (A) (A) (A) (A) (A) (A) (A)
 The electronic state is 1-A.
 Alpha  occ. eigenvalues --  -19.10413 -14.40086 -14.39521 -14.38636 -14.33443
 Alpha  occ. eigenvalues --  -14.31715 -10.32719 -10.28744 -10.25556 -10.24890
 Alpha  occ. eigenvalues --  -10.19153  -1.13737  -1.05692  -1.02931  -0.92846
 Alpha  occ. eigenvalues --   -0.91547  -0.89101  -0.76684  -0.69590  -0.67897
 Alpha  occ. eigenvalues --   -0.63161  -0.61088  -0.57904  -0.53850  -0.50587
 Alpha  occ. eigenvalues --   -0.50212  -0.49879  -0.47375  -0.45117  -0.44601
 Alpha  occ. eigenvalues --   -0.41667  -0.41020  -0.31014  -0.30089  -0.29045
 Alpha  occ. eigenvalues --   -0.28910  -0.26123  -0.23423  -0.20308
 Alpha virt. eigenvalues --   -0.01943   0.01427   0.03239   0.05504   0.07484
 Alpha virt. eigenvalues --    0.08250   0.10090   0.13073   0.17839   0.19555
 Alpha virt. eigenvalues --    0.20867   0.24363   0.26900   0.30267   0.30837
 Alpha virt. eigenvalues --    0.33019   0.35973   0.39857   0.42500   0.45094
 Alpha virt. eigenvalues --    0.48487   0.51656   0.54511   0.56574   0.58663
 Alpha virt. eigenvalues --    0.58972   0.59512   0.62348   0.62828   0.65466
 Alpha virt. eigenvalues --    0.66473   0.67134   0.68600   0.69979   0.72165
 Alpha virt. eigenvalues --    0.75586   0.76016   0.79539   0.81922   0.82501
 Alpha virt. eigenvalues --    0.83420   0.84704   0.85585   0.86114   0.87338
 Alpha virt. eigenvalues --    0.88215   0.90306   0.91474   0.92375   0.93618
 Alpha virt. eigenvalues --    0.94869   0.99287   1.01253   1.07380   1.09343
 Alpha virt. eigenvalues --    1.10365   1.12416   1.18869   1.22438   1.31151
 Alpha virt. eigenvalues --    1.39033   1.41462   1.49231   1.56176   1.63626
 Alpha virt. eigenvalues --    1.69673   1.77272   1.86587   1.96001   2.12284
          Condensed to atoms (all electrons):
              1          2          3          4          5          6
     1  C    5.202853   0.817542  -0.011987  -0.044000  -0.006483  -0.001521
     2  O    0.817542   7.750861  -0.173289   0.001554   0.006862  -0.000057
     3  N   -0.011987  -0.173289   8.003999   0.132303   0.280613  -0.114494
     4  C   -0.044000   0.001554   0.132303   4.647275  -0.010204   0.256966
     5  H   -0.006483   0.006862   0.280613  -0.010204   0.375811  -0.000849
     6  N   -0.001521  -0.000057  -0.114494   0.256966  -0.000849   7.033683
     7  H    0.000160   0.000000  -0.004015  -0.032639   0.001261   0.290513
     8  H    0.000085   0.000002   0.006961  -0.013071  -0.000082   0.290447
     9  N   -0.025093   0.000131  -0.108483   0.572806   0.003922  -0.090136
    10  C   -0.099767   0.007191   0.005933  -0.086665  -0.000936   0.002238
    11  C   -0.170300  -0.151964  -0.332012   0.009777   0.011348  -0.000383
    12  N   -0.076060   0.000205   0.002166   0.001944   0.000021   0.000004
    13  C    0.007779  -0.000079  -0.000326   0.000083   0.000006   0.000000
    14  N    0.006614  -0.000082   0.000446   0.002096   0.000022  -0.000005
    15  H   -0.000100  -0.000002   0.000002   0.000002   0.000000   0.000000
    16  H    0.000333   0.000001   0.000045  -0.000052  -0.000001  -0.000009
              7          8          9         10         11         12
     1  C    0.000160   0.000085  -0.025093  -0.099767  -0.170300  -0.076060
     2  O    0.000000   0.000002   0.000131   0.007191  -0.151964   0.000205
     3  N   -0.004015   0.006961  -0.108483   0.005933  -0.332012   0.002166
     4  C   -0.032639  -0.013071   0.572806  -0.086665   0.009777   0.001944
     5  H    0.001261  -0.000082   0.003922  -0.000936   0.011348   0.000021
     6  N    0.290513   0.290447  -0.090136   0.002238  -0.000383   0.000004
     7  H    0.478173  -0.025336   0.004929  -0.000273   0.000037   0.000000
     8  H   -0.025336   0.413345   0.001069  -0.000051   0.000180  -0.000001
     9  N    0.004929   0.001069   6.856867   0.275998  -0.042760   0.013446
    10  C   -0.000273  -0.000051   0.275998   5.268900   0.228022  -0.123198
    11  C    0.000037   0.000180  -0.042760   0.228022   6.208273   0.413484
    12  N    0.000000  -0.000001   0.013446  -0.123198   0.413484   6.787648
    13  C    0.000000   0.000000   0.004200  -0.116480  -0.113745   0.516338
    14  N   -0.000001  -0.000033  -0.056713   0.197429  -0.091625  -0.112457
    15  H    0.000000   0.000000  -0.000045   0.002433   0.004990  -0.028162
    16  H    0.000000   0.000004   0.002532  -0.016233   0.012015   0.004465
             13         14         15         16
     1  C    0.007779   0.006614  -0.000100   0.000333
     2  O   -0.000079  -0.000082  -0.000002   0.000001
     3  N   -0.000326   0.000446   0.000002   0.000045
     4  C    0.000083   0.002096   0.000002  -0.000052
     5  H    0.000006   0.000022   0.000000  -0.000001
     6  N    0.000000  -0.000005   0.000000  -0.000009
     7  H    0.000000  -0.000001   0.000000   0.000000
     8  H    0.000000  -0.000033   0.000000   0.000004
     9  N    0.004200  -0.056713  -0.000045   0.002532
    10  C   -0.116480   0.197429   0.002433  -0.016233
    11  C   -0.113745  -0.091625   0.004990   0.012015
    12  N    0.516338  -0.112457  -0.028162   0.004465
    13  C    4.862154   0.233214   0.379936  -0.012603
    14  N    0.233214   7.296242  -0.056163   0.289081
    15  H    0.379936  -0.056163   0.518223   0.000810
    16  H   -0.012603   0.289081   0.000810   0.387746
 Mulliken atomic charges:
              1
     1  C    0.399945
     2  O   -0.258876
     3  N   -0.687863
     4  C    0.561825
     5  H    0.338687
     6  N   -0.666398
     7  H    0.287191
     8  H    0.326480
     9  N   -0.412669
    10  C    0.455459
    11  C    0.014663
    12  N   -0.399843
    13  C    0.239523
    14  N   -0.708067
    15  H    0.178077
    16  H    0.331865
 Sum of Mulliken atomic charges =   0.00000
 Mulliken charges with hydrogens summed into heavy atoms:
              1
     1  C    0.399945
     2  O   -0.258876
     3  N   -0.349175
     4  C    0.561825
     6  N   -0.052727
     9  N   -0.412669
    10  C    0.455459
    11  C    0.014663
    12  N   -0.399843
    13  C    0.417601
    14  N   -0.376202
 Sum of Mulliken charges with hydrogens summed into heavy atoms =   0.00000
 Electronic spatial extent (au):  <R**2>=           1481.9968
 Charge=              0.0000 electrons
 Dipole moment (field-independent basis, Debye):
    X=             -3.1582    Y=             -4.8948    Z=              1.5550  Tot=              6.0292
 Quadrupole moment (field-independent basis, Debye-Ang):
   XX=            -43.7547   YY=            -67.6987   ZZ=            -63.3230
   XY=            -12.5274   XZ=             -5.6118   YZ=             -1.6127
 Traceless Quadrupole moment (field-independent basis, Debye-Ang):
   XX=             14.5041   YY=             -9.4399   ZZ=             -5.0642
   XY=            -12.5274   XZ=             -5.6118   YZ=             -1.6127
 Octapole moment (field-independent basis, Debye-Ang**2):
  XXX=            -32.7111  YYY=            -42.9644  ZZZ=              1.0560  XYY=             -4.3023
  XXY=            -23.7266  XXZ=             19.4976  XZZ=             -1.1580  YZZ=              4.3858
  YYZ=              2.8535  XYZ=              6.3674
 Hexadecapole moment (field-independent basis, Debye-Ang**3):
 XXXX=           -957.3603 YYYY=           -644.3561 ZZZZ=            -59.7213 XXXY=            -69.8315
 XXXZ=            -72.8681 YYYX=            -38.3539 YYYZ=             -4.2649 ZZZX=             -4.3996
 ZZZY=             -1.4558 XXYY=           -248.1077 XXZZ=           -230.0880 YYZZ=           -112.3934
 XXYZ=            -19.4851 YYXZ=             -8.6755 ZZXY=             -3.7420
 N-N= 6.036528755927D+02 E-N=-2.473694301513D+03  KE= 5.405084385873D+02
 Calling FoFJK, ICntrl=      2127 FMM=F ISym2X=0 I1Cent= 0 IOpClX= 0 NMat=1 NMatS=1 NMatT=0.
 ***** Axes restored to original set *****
 -------------------------------------------------------------------
 Center     Atomic                   Forces (Hartrees/Bohr)
 Number     Number              X              Y              Z
 -------------------------------------------------------------------
      1        6           0.145357975   -0.144009252   -0.081389021
      2        8          -0.210075815    0.224296575    0.171033332
      3        7          -0.002712671   -0.020035989   -0.067212899
      4        6           0.050668425   -0.033467641   -0.005835340
      5        1          -0.002873835    0.005881114    0.003525078
      6        7          -0.037682364   -0.044635185    0.000700495
      7        1           0.041088859    0.001680952    0.001521927
      8        1          -0.010966733    0.042135682    0.011771011
      9        7          -0.011490144   -0.009091171   -0.050253534
     10        6          -0.031704592    0.024551483   -0.016864974
     11        6           0.055970393   -0.048504104   -0.010002172
     12        7           0.010834932    0.011727948    0.057227540
     13        6          -0.033885308    0.031151647    0.020240519
     14        7           0.040476899   -0.041678979   -0.025451114
     15        1          -0.003046759    0.000533192   -0.006615654
     16        1           0.000040738   -0.000536272   -0.002395194
 -------------------------------------------------------------------
 Cartesian Forces:  Max     0.224296575 RMS     0.065889303

 GradGradGradGradGradGradGradGradGradGradGradGradGradGradGradGradGradGrad
 Berny optimization.
 Internal  Forces:  Max     0.351201470 RMS     0.044154664
 Search for a local minimum.
 Step number   1 out of a maximum of   89
 All quantities printed in internal units (Hartrees-Bohrs-Radians)
 Mixed Optimization -- RFO/linear search
 Second derivative matrix not updated -- first step.
     Eigenvalues ---    0.01515   0.02042   0.02258   0.02285   0.02291
     Eigenvalues ---    0.02316   0.02325   0.02369   0.02370   0.02389
     Eigenvalues ---    0.02403   0.02412   0.05828   0.15980   0.15997
     Eigenvalues ---    0.16000   0.16000   0.16000   0.22714   0.23468
     Eigenvalues ---    0.24679   0.24844   0.24957   0.24978   0.24995
     Eigenvalues ---    0.35469   0.35948   0.36019   0.40781   0.43480
     Eigenvalues ---    0.45536   0.46252   0.46277   0.48836   0.51022
     Eigenvalues ---    0.52300   0.52658   0.54558   0.55473   0.55846
     Eigenvalues ---    0.56042   1.758471000.000001000.000001000.00000
     Eigenvalues --- 1000.000001000.000001000.000001000.000001000.00000
     Eigenvalues --- 1000.000001000.000001000.000001000.000001000.00000
     Eigenvalues --- 1000.000001000.000001000.000001000.000001000.00000
     Eigenvalues --- 1000.000001000.000001000.000001000.000001000.00000
     Eigenvalues --- 1000.000001000.000001000.000001000.000001000.00000
     Eigenvalues --- 1000.000001000.000001000.000001000.000001000.00000
     Eigenvalues --- 1000.000001000.000001000.000001000.00000
 RFO step:  Lambda=-1.25533792D-01 EMin= 1.51537303D-02
 Linear search not attempted -- first point.
 Maximum step size (   0.300) exceeded in Quadratic search.
    -- Step size scaled by   0.742
 Iteration  1 RMS(Cart)=  0.04371102 RMS(Int)=  0.00093454
 Iteration  2 RMS(Cart)=  0.00144962 RMS(Int)=  0.00027074
 Iteration  3 RMS(Cart)=  0.00000142 RMS(Int)=  0.00027073
 Iteration  4 RMS(Cart)=  0.00000000 RMS(Int)=  0.00027073
 Variable       Old X    -DE/DX   Delta X   Delta X   Delta X     New X
                                 (Linear)    (Quad)   (Total)
    R1        2.08034   0.35120   0.00000   0.13832   0.13832   2.21866
    R2        2.55299   0.08247   0.00000   0.09321   0.09350   2.64648
    R3        2.62947   0.05825   0.00000   0.07592   0.07631   2.70578
    R4        2.56027   0.03255   0.00000   0.03566   0.03557   2.59584
    R5        1.90548   0.00341   0.00000   0.00430   0.00430   1.90978
    R6        2.67082  -0.01274   0.00000  -0.01687  -0.01687   2.65395
    R7        2.55312  -0.03627   0.00000  -0.04297  -0.04337   2.50975
    R8        2.04052  -0.04032   0.00000  -0.06159  -0.06159   1.97892
    R9        2.04162  -0.04444   0.00000  -0.06799  -0.06799   1.97363
   R10        2.53914   0.02476   0.00000   0.02426   0.02395   2.56310
   R11        2.61856   0.02596   0.00000   0.03370   0.03371   2.65226
   R12        2.53950   0.02102   0.00000   0.02378   0.02382   2.56332
   R13        2.54391   0.03299   0.00000   0.03534   0.03526   2.57917
   R14        2.54996  -0.01348   0.00000  -0.01623  -0.01621   2.53375
   R15        2.54841   0.04527   0.00000   0.04904   0.04912   2.59753
   R16        2.04920  -0.00713   0.00000  -0.01101  -0.01101   2.03819
   R17        1.90520   0.00101   0.00000   0.00128   0.00128   1.90647
    A1        2.12280   0.00407   0.00000   0.00279   0.00238   2.12518
    A2        2.11303   0.04284   0.00000   0.07943   0.07902   2.19205
    A3        2.04718  -0.04691   0.00000  -0.08214  -0.08134   1.96585
    A4        2.12035   0.01983   0.00000   0.04677   0.04704   2.16738
    A5        2.07121  -0.01593   0.00000  -0.03899  -0.03912   2.03209
    A6        2.09044  -0.00388   0.00000  -0.00774  -0.00788   2.08256
    A7        2.09097  -0.01004   0.00000  -0.01694  -0.01672   2.07425
    A8        2.12696   0.01313   0.00000   0.02021   0.01977   2.14673
    A9        2.06326  -0.00307   0.00000  -0.00318  -0.00296   2.06030
   A10        1.92669   0.01476   0.00000   0.04264   0.04213   1.96882
   A11        1.91472   0.00329   0.00000   0.01289   0.01236   1.92707
   A12        1.90817  -0.00035   0.00000   0.00748   0.00655   1.91473
   A13        2.06427  -0.01332   0.00000  -0.04030  -0.04134   2.02294
   A14        2.11248   0.03211   0.00000   0.05884   0.05866   2.17113
   A15        2.30876  -0.01990   0.00000  -0.04002  -0.03997   2.26878
   A16        1.85804  -0.01209   0.00000  -0.01811  -0.01800   1.84004
   A17        2.09379  -0.00479   0.00000  -0.00315  -0.00257   2.09121
   A18        2.30492  -0.01517   0.00000  -0.03413  -0.03435   2.27057
   A19        1.88362   0.01996   0.00000   0.03734   0.03699   1.92061
   A20        1.89094  -0.02020   0.00000  -0.04417  -0.04419   1.84675
   A21        1.88247   0.02352   0.00000   0.04743   0.04755   1.93002
   A22        2.19732  -0.01020   0.00000  -0.01965  -0.01971   2.17762
   A23        2.20321  -0.01333   0.00000  -0.02778  -0.02784   2.17537
   A24        1.90968  -0.01119   0.00000  -0.02248  -0.02234   1.88734
   A25        2.18350   0.00348   0.00000   0.00575   0.00568   2.18918
   A26        2.19000   0.00771   0.00000   0.01674   0.01667   2.20666
    D1        3.09021   0.00165   0.00000   0.00662   0.00650   3.09672
    D2        0.00113   0.00139   0.00000   0.00614   0.00606   0.00720
    D3       -0.03139   0.00068   0.00000   0.00149   0.00140  -0.02999
    D4       -3.12048   0.00042   0.00000   0.00101   0.00096  -3.11952
    D5       -3.13482   0.00008   0.00000  -0.00120  -0.00133  -3.13614
    D6       -0.04364   0.00057   0.00000   0.00183   0.00176  -0.04188
    D7       -0.01309   0.00058   0.00000   0.00298   0.00298  -0.01011
    D8        3.07809   0.00107   0.00000   0.00601   0.00606   3.08415
    D9       -3.02103  -0.00057   0.00000  -0.00381  -0.00385  -3.02488
   D10        0.05154  -0.00025   0.00000  -0.00244  -0.00253   0.04901
   D11        0.06748  -0.00066   0.00000  -0.00422  -0.00425   0.06323
   D12        3.14006  -0.00034   0.00000  -0.00285  -0.00293   3.13713
   D13       -0.64093   0.00422   0.00000   0.01398   0.01430  -0.62663
   D14       -2.74487  -0.00685   0.00000  -0.03067  -0.03107  -2.77593
   D15        2.56718   0.00325   0.00000   0.01171   0.01211   2.57929
   D16        0.46324  -0.00781   0.00000  -0.03294  -0.03326   0.42998
   D17       -0.02373   0.00052   0.00000   0.00225   0.00226  -0.02147
   D18        3.04990   0.00056   0.00000   0.00305   0.00304   3.05294
   D19       -0.02152  -0.00034   0.00000   0.00112   0.00121  -0.02031
   D20       -3.05423  -0.00180   0.00000  -0.00852  -0.00843  -3.06266
   D21        0.04010  -0.00021   0.00000  -0.00342  -0.00357   0.03653
   D22       -3.06216   0.00020   0.00000  -0.00410  -0.00436  -3.06652
   D23        3.09776  -0.00031   0.00000   0.00139   0.00154   3.09930
   D24       -0.00450   0.00010   0.00000   0.00071   0.00075  -0.00376
   D25        3.05056   0.00315   0.00000   0.01109   0.01087   3.06143
   D26       -0.08691   0.00270   0.00000   0.00992   0.00976  -0.07715
   D27        0.00621  -0.00039   0.00000  -0.00149  -0.00146   0.00475
   D28       -3.13126  -0.00083   0.00000  -0.00266  -0.00257  -3.13383
   D29       -3.09455   0.00008   0.00000  -0.00201  -0.00212  -3.09667
   D30        0.00114   0.00010   0.00000   0.00011   0.00007   0.00121
   D31        0.00267  -0.00025   0.00000  -0.00087  -0.00084   0.00183
   D32       -3.11962  -0.00010   0.00000  -0.00071  -0.00071  -3.12032
   D33       -0.00561   0.00031   0.00000   0.00133   0.00134  -0.00428
   D34        3.13184   0.00074   0.00000   0.00247   0.00242   3.13427
   D35        3.11660   0.00020   0.00000   0.00129   0.00132   3.11791
   D36       -0.02914   0.00064   0.00000   0.00243   0.00240  -0.02673
         Item               Value     Threshold  Converged?
 Maximum Force            0.351201     0.000450     NO 
 RMS     Force            0.044155     0.000300     NO 
 Maximum Displacement     0.196213     0.001800     NO 
 RMS     Displacement     0.043536     0.001200     NO 
 Predicted change in Energy=-6.422049D-02
 GradGradGradGradGradGradGradGradGradGradGradGradGradGradGradGradGradGrad

                          Input orientation:                          
 ---------------------------------------------------------------------
 Center     Atomic      Atomic             Coordinates (Angstroms)
 Number     Number       Type             X           Y           Z
 ---------------------------------------------------------------------
      1          6           0        3.776835    0.906921    0.360898
      2          8           0        3.081149    1.658140    0.935454
      3          7           0        3.584618    0.613724   -0.994968
      4          6           0        4.397334   -0.216596   -1.727767
      5          1           0        2.819242    1.088189   -1.453683
      6          7           0        4.186569   -0.321937   -3.112269
      7          1           0        3.173607   -0.273776   -3.373460
      8          1           0        4.602784   -1.207342   -3.477776
      9          7           0        5.425640   -0.871577   -1.201040
     10          6           0        5.652959   -0.655109    0.118470
     11          6           0        4.897647    0.213956    0.921024
     12          7           0        5.436251    0.281059    2.173299
     13          6           0        6.506067   -0.526964    2.154628
     14          7           0        6.655947   -1.101720    0.915033
     15          1           0        7.149168   -0.715640    2.999684
     16          1           0        7.383233   -1.742729    0.635813
 ---------------------------------------------------------------------
                    Distance matrix (angstroms):
                    1          2          3          4          5
     1  C    0.000000
     2  O    1.174063   0.000000
     3  N    1.400459   2.251846   0.000000
     4  C    2.451496   3.512794   1.373657   0.000000
     5  H    2.059744   2.470104   1.010612   2.065904   0.000000
     6  N    3.706868   4.639690   2.391814   1.404409   2.570787
     7  H    3.962747   4.723091   2.571733   2.051605   2.380350
     8  H    4.459565   5.477496   3.243036   2.021465   3.542236
     9  N    2.884660   4.057180   2.374436   1.328102   3.270752
    10  C    2.453273   3.554263   2.669778   2.275407   3.679769
    11  C    1.431838   2.320677   2.356880   2.729795   3.274642
    12  N    2.535776   2.995850   3.684715   4.067594   4.544798
    13  C    3.566819   4.241595   4.444770   4.429003   5.405673
    14  N    3.554010   4.516240   4.002988   3.587362   5.012666
    15  H    4.579140   5.142437   5.516382   5.492762   6.467962
    16  H    4.483562   5.492142   4.758339   4.102583   5.762820
                    6          7          8          9         10
     6  N    0.000000
     7  H    1.047202   0.000000
     8  H    1.044401   1.710256   0.000000
     9  N    2.343117   3.185660   2.444045   0.000000
    10  C    3.563563   4.299556   3.786927   1.356333   0.000000
    11  C    4.130408   4.653256   4.632114   2.441376   1.403518
    12  N    5.464663   6.016139   5.902936   3.565788   2.268412
    13  C    5.758673   6.459810   5.984094   3.542116   2.211369
    14  N    4.788012   5.585997   4.850094   2.458534   1.356451
    15  H    6.803527   7.524447   6.977345   4.543231   3.247107
    16  H    5.126932   5.996086   4.993912   2.822252   2.108177
                   11         12         13         14         15
    11  C    0.000000
    12  N    1.364840   0.000000
    13  C    2.158183   1.340804   0.000000
    14  N    2.196055   2.232256   1.374555   0.000000
    15  H    3.202237   2.147186   1.078563   2.176717   0.000000
    16  H    3.176177   3.201612   2.134081   1.008862   2.587970
                   16
    16  H    0.000000
 Stoichiometry    C5H5N5O
 Framework group  C1[X(C5H5N5O)]
 Deg. of freedom    42
 Full point group                 C1      NOp   1
 Largest Abelian subgroup         C1      NOp   1
 Largest concise Abelian subgroup C1      NOp   1
                         Standard orientation:                         
 ---------------------------------------------------------------------
 Center     Atomic      Atomic             Coordinates (Angstroms)
 Number     Number       Type             X           Y           Z
 ---------------------------------------------------------------------
      1          6           0       -0.233051    1.445071    0.017301
      2          8           0       -0.109095    2.612283   -0.008686
      3          7           0       -1.494872    0.837543    0.018388
      4          6           0       -1.697368   -0.520939   -0.002966
      5          1           0       -2.292565    1.457353   -0.010896
      6          7           0       -3.006937   -1.008668   -0.142671
      7          1           0       -3.715515   -0.416253    0.350881
      8          1           0       -3.068120   -1.992316    0.202966
      9          7           0       -0.703180   -1.401003    0.027563
     10          6           0        0.548765   -0.879972    0.055832
     11          6           0        0.836723    0.493463    0.030981
     12          7           0        2.186522    0.687451   -0.025586
     13          6           0        2.731469   -0.537558   -0.037481
     14          7           0        1.753197   -1.502084    0.008074
     15          1           0        3.790754   -0.739314   -0.060041
     16          1           0        1.895859   -2.500800    0.004196
 ---------------------------------------------------------------------
 Rotational constants (GHZ):      1.9705857      1.1008061      0.7073341
 Standard basis: 6-31G (6D, 7F)
 There are   109 symmetry adapted basis functions of A   symmetry.
 Integral buffers will be    131072 words long.
 Raffenetti 2 integral format.
 Two-electron integral symmetry is turned on.
   109 basis functions,   262 primitive gaussians,   109 cartesian basis functions
    39 alpha electrons       39 beta electrons
       nuclear repulsion energy       595.3971081198 Hartrees.
 NAtoms=   16 NActive=   16 NUniq=   16 SFac= 7.50D-01 NAtFMM=   80 NAOKFM=F Big=F
 One-electron integrals computed using PRISM.
 NBasis=   109 RedAO= T  NBF=   109
 NBsUse=   109 1.00D-06 NBFU=   109
 Initial guess read from the read-write file.
 B after Tr=     0.000000    0.000000    0.000000
         Rot=    1.000000    0.000000    0.000000    0.000000 Ang=   0.00 deg.
 Initial guess orbital symmetries:
       Occupied  (A) (A) (A) (A) (A) (A) (A) (A) (A) (A) (A) (A)
                 (A) (A) (A) (A) (A) (A) (A) (A) (A) (A) (A) (A)
                 (A) (A) (A) (A) (A) (A) (A) (A) (A) (A) (A) (A)
                 (A) (A) (A)
       Virtual   (A) (A) (A) (A) (A) (A) (A) (A) (A) (A) (A) (A)
                 (A) (A) (A) (A) (A) (A) (A) (A) (A) (A) (A) (A)
                 (A) (A) (A) (A) (A) (A) (A) (A) (A) (A) (A) (A)
                 (A) (A) (A) (A) (A) (A) (A) (A) (A) (A) (A) (A)
                 (A) (A) (A) (A) (A) (A) (A) (A) (A) (A) (A) (A)
                 (A) (A) (A) (A) (A) (A) (A) (A) (A) (A)
 Harris functional with IExCor=  402 diagonalized for initial guess.
 ExpMin= 1.61D-01 ExpMax= 5.48D+03 ExpMxC= 8.25D+02 IAcc=1 IRadAn=         1 AccDes= 0.00D+00
 HarFok:  IExCor=  402 AccDes= 0.00D+00 IRadAn=         1 IDoV= 1
 ScaDFX=  1.000000  1.000000  1.000000  1.000000
 FoFCou: FMM=F IPFlag=           0 FMFlag=      100000 FMFlg1=           0
         NFxFlg=           0 DoJE=T BraDBF=F KetDBF=T FulRan=T
         Omega=  0.000000  0.000000  1.000000  0.000000  0.000000 ICntrl=     500 IOpCl=  0
         NMat0=    1 NMatS0=    1 NMatT0=    0 NMatD0=    1 NMtDS0=    0 NMtDT0=    0
         I1Cent=           4 NGrid=           0.
 Petite list used in FoFCou.
 Requested convergence on RMS density matrix=1.00D-08 within 128 cycles.
 Requested convergence on MAX density matrix=1.00D-06.
 Requested convergence on             energy=1.00D-06.
 No special actions if energy rises.
 Keep R1 ints in memory in canonical form, NReq=19093211.
 Integral accuracy reduced to 1.0D-05 until final iterations.
 Initial convergence to 1.0D-05 achieved.  Increase integral accuracy.
 SCF Done:  E(RB3LYP) =  -542.347917430     A.U. after   14 cycles
             Convg  =    0.7090D-08             -V/T =  2.0047
 Calling FoFJK, ICntrl=      2127 FMM=F ISym2X=0 I1Cent= 0 IOpClX= 0 NMat=1 NMatS=1 NMatT=0.
 ***** Axes restored to original set *****
 -------------------------------------------------------------------
 Center     Atomic                   Forces (Hartrees/Bohr)
 Number     Number              X              Y              Z
 -------------------------------------------------------------------
      1        6           0.066293221   -0.058947034   -0.018545751
      2        8          -0.081792295    0.082538150    0.054127752
      3        7          -0.000728186   -0.008613688   -0.027225162
      4        6           0.021306137   -0.010014742   -0.006091634
      5        1          -0.001209391    0.003908448    0.001736699
      6        7          -0.028987037   -0.029471946    0.004572088
      7        1           0.022908743    0.004346121    0.000222121
      8        1          -0.001681202    0.023603003    0.004896808
      9        7          -0.001394982   -0.007142255   -0.016869815
     10        6          -0.022058546    0.022195479   -0.003357451
     11        6           0.012062748   -0.015750610   -0.017235949
     12        7           0.012081251   -0.001851135    0.022829498
     13        6          -0.016822364    0.015414705    0.012254983
     14        7           0.020193597   -0.020040502   -0.007615482
     15        1           0.000348628   -0.000697035   -0.002998526
     16        1          -0.000520323    0.000523039   -0.000700180
 -------------------------------------------------------------------
 Cartesian Forces:  Max     0.082538150 RMS     0.026287028

 GradGradGradGradGradGradGradGradGradGradGradGradGradGradGradGradGradGrad
 Berny optimization.
 Using GEDIIS/GDIIS optimizer.
 Internal  Forces:  Max     0.127766086 RMS     0.016433897
 Search for a local minimum.
 Step number   2 out of a maximum of   89
 All quantities printed in internal units (Hartrees-Bohrs-Radians)
 Mixed Optimization -- RFO/linear search
 Update second derivatives using D2CorX and points    1    2
 DE= -6.26D-02 DEPred=-6.42D-02 R= 9.75D-01
 SS=  1.41D+00  RLast= 3.00D-01 DXNew= 5.0454D-01 8.9991D-01
 Trust test= 9.75D-01 RLast= 3.00D-01 DXMaxT set to 5.05D-01
 Use linear search instead of GDIIS.
     Eigenvalues ---    0.01516   0.02047   0.02256   0.02286   0.02291
     Eigenvalues ---    0.02315   0.02324   0.02369   0.02370   0.02388
     Eigenvalues ---    0.02399   0.02408   0.05316   0.15956   0.15987
     Eigenvalues ---    0.15999   0.16000   0.16011   0.22810   0.23767
     Eigenvalues ---    0.24536   0.24845   0.24902   0.24982   0.26421
     Eigenvalues ---    0.35396   0.35499   0.35989   0.40934   0.43401
     Eigenvalues ---    0.46248   0.46274   0.47039   0.49115   0.50993
     Eigenvalues ---    0.52528   0.53574   0.54472   0.55059   0.55702
     Eigenvalues ---    0.56984   1.602001000.000001000.000001000.00000
     Eigenvalues --- 1000.000001000.000001000.000001000.000001000.00000
     Eigenvalues --- 1000.000001000.000001000.000001000.000001000.00000
     Eigenvalues --- 1000.000001000.000001000.000001000.000001000.00000
     Eigenvalues --- 1000.000001000.000001000.000001000.000001000.00000
     Eigenvalues --- 1000.000001000.000001000.000001000.000001000.00000
     Eigenvalues --- 1000.000001000.000001000.000001000.000001000.00000
     Eigenvalues --- 1000.000001000.000001000.000001000.00000
 RFO step:  Lambda=-1.56027216D-02 EMin= 1.51576404D-02
 Quartic linear search produced a step of  0.80756.
 Iteration  1 RMS(Cart)=  0.05277290 RMS(Int)=  0.00918330
 Iteration  2 RMS(Cart)=  0.00874722 RMS(Int)=  0.00508190
 Iteration  3 RMS(Cart)=  0.00016692 RMS(Int)=  0.00507923
 Iteration  4 RMS(Cart)=  0.00000283 RMS(Int)=  0.00507923
 Iteration  5 RMS(Cart)=  0.00000009 RMS(Int)=  0.00507923
 Variable       Old X    -DE/DX   Delta X   Delta X   Delta X     New X
                                 (Linear)    (Quad)   (Total)
    R1        2.21866   0.12777   0.11170  -0.01303   0.09867   2.31733
    R2        2.64648   0.03025   0.07550   0.00468   0.08032   2.72680
    R3        2.70578   0.01287   0.06163  -0.02656   0.03562   2.74141
    R4        2.59584   0.00923   0.02872  -0.00587   0.02251   2.61835
    R5        1.90978   0.00196   0.00347   0.00304   0.00651   1.91629
    R6        2.65395  -0.00828  -0.01362  -0.01604  -0.02966   2.62429
    R7        2.50975  -0.01163  -0.03502   0.00430  -0.03128   2.47847
    R8        1.97892  -0.02201  -0.04974  -0.04363  -0.09337   1.88556
    R9        1.97363  -0.02239  -0.05491  -0.03924  -0.09414   1.87949
   R10        2.56310   0.01003   0.01934   0.00389   0.02306   2.58616
   R11        2.65226   0.00200   0.02722  -0.02592   0.00168   2.65394
   R12        2.56332   0.01445   0.01923   0.02247   0.04193   2.60525
   R13        2.57917   0.01897   0.02848   0.02253   0.05082   2.63000
   R14        2.53375  -0.00932  -0.01309  -0.01495  -0.02822   2.50553
   R15        2.59753   0.01702   0.03967   0.00397   0.04370   2.64124
   R16        2.03819  -0.00202  -0.00889   0.00122  -0.00767   2.03051
   R17        1.90647  -0.00051   0.00103  -0.00322  -0.00219   1.90428
    A1        2.12518  -0.00409   0.00192  -0.03532  -0.03403   2.09115
    A2        2.19205   0.01888   0.06382   0.04453   0.10763   2.29968
    A3        1.96585  -0.01478  -0.06568  -0.00880  -0.07366   1.89219
    A4        2.16738   0.00677   0.03798   0.01289   0.05089   2.21828
    A5        2.03209  -0.00675  -0.03159  -0.02601  -0.05757   1.97451
    A6        2.08256  -0.00001  -0.00636   0.01295   0.00653   2.08909
    A7        2.07425  -0.00665  -0.01350  -0.02617  -0.03939   2.03486
    A8        2.14673   0.00306   0.01597  -0.00259   0.01263   2.15936
    A9        2.06030   0.00362  -0.00239   0.02983   0.02771   2.08801
   A10        1.96882   0.01059   0.03402   0.11966   0.13187   2.10069
   A11        1.92707   0.00394   0.00998   0.08184   0.06934   1.99642
   A12        1.91473   0.00149   0.00529   0.10360   0.08130   1.99602
   A13        2.02294  -0.00769  -0.03338  -0.02761  -0.06196   1.96098
   A14        2.17113   0.01417   0.04737   0.03080   0.07735   2.24849
   A15        2.26878  -0.01118  -0.03228  -0.03457  -0.06817   2.20061
   A16        1.84004  -0.00287  -0.01453   0.00891  -0.00600   1.83404
   A17        2.09121  -0.00149  -0.00208  -0.00319  -0.00435   2.08686
   A18        2.27057  -0.00284  -0.02774   0.01311  -0.01529   2.25527
   A19        1.92061   0.00433   0.02987  -0.00926   0.02022   1.94084
   A20        1.84675  -0.00362  -0.03569   0.01000  -0.02576   1.82099
   A21        1.93002   0.00637   0.03840  -0.00269   0.03590   1.96592
   A22        2.17762  -0.00085  -0.01591   0.02143   0.00542   2.18304
   A23        2.17537  -0.00552  -0.02248  -0.01863  -0.04122   2.13416
   A24        1.88734  -0.00420  -0.01804  -0.00689  -0.02436   1.86298
   A25        2.18918   0.00131   0.00458   0.00068   0.00498   2.19416
   A26        2.20666   0.00289   0.01346   0.00622   0.01939   2.22605
    D1        3.09672   0.00097   0.00525   0.03500   0.03838   3.13510
    D2        0.00720   0.00094   0.00490   0.03861   0.04193   0.04912
    D3       -0.02999   0.00026   0.00113   0.00567   0.00645  -0.02354
    D4       -3.11952   0.00023   0.00078   0.00928   0.01000  -3.10952
    D5       -3.13614  -0.00005  -0.00107  -0.00705  -0.01014   3.13691
    D6       -0.04188   0.00030   0.00142   0.01213   0.01261  -0.02927
    D7       -0.01011   0.00044   0.00241   0.02279   0.02525   0.01514
    D8        3.08415   0.00080   0.00490   0.04196   0.04800   3.13215
    D9       -3.02488  -0.00102  -0.00311  -0.04567  -0.04888  -3.07376
   D10        0.04901  -0.00046  -0.00204  -0.02550  -0.02843   0.02058
   D11        0.06323  -0.00117  -0.00343  -0.05046  -0.05428   0.00895
   D12        3.13713  -0.00061  -0.00237  -0.03030  -0.03384   3.10329
   D13       -0.62663   0.00507   0.01155   0.07088   0.08938  -0.53725
   D14       -2.77593  -0.00743  -0.02509  -0.21098  -0.24370  -3.01963
   D15        2.57929   0.00453   0.00978   0.05286   0.07027   2.64956
   D16        0.42998  -0.00797  -0.02686  -0.22900  -0.26281   0.16718
   D17       -0.02147   0.00036   0.00182   0.01366   0.01567  -0.00580
   D18        3.05294   0.00054   0.00245   0.03163   0.03424   3.08718
   D19       -0.02031   0.00004   0.00098   0.01669   0.01902  -0.00128
   D20       -3.06266  -0.00168  -0.00681  -0.06285  -0.06858  -3.13125
   D21        0.03653  -0.00044  -0.00288  -0.03577  -0.04125  -0.00472
   D22       -3.06652  -0.00057  -0.00352  -0.05194  -0.05936  -3.12588
   D23        3.09930   0.00025   0.00124   0.02485   0.02784   3.12714
   D24       -0.00376   0.00012   0.00060   0.00868   0.00973   0.00597
   D25        3.06143   0.00215   0.00878   0.06037   0.06525   3.12668
   D26       -0.07715   0.00191   0.00788   0.05765   0.06259  -0.01456
   D27        0.00475  -0.00021  -0.00118  -0.00921  -0.01028  -0.00553
   D28       -3.13383  -0.00046  -0.00208  -0.01194  -0.01293   3.13642
   D29       -3.09667  -0.00021  -0.00171  -0.02233  -0.02585  -3.12252
   D30        0.00121   0.00001   0.00006  -0.00456  -0.00507  -0.00386
   D31        0.00183  -0.00012  -0.00068  -0.00134  -0.00164   0.00019
   D32       -3.12032  -0.00012  -0.00057  -0.00715  -0.00809  -3.12841
   D33       -0.00428   0.00021   0.00108   0.00694   0.00779   0.00351
   D34        3.13427   0.00045   0.00196   0.00968   0.01048  -3.13844
   D35        3.11791   0.00026   0.00106   0.01328   0.01462   3.13253
   D36       -0.02673   0.00051   0.00194   0.01602   0.01731  -0.00942
         Item               Value     Threshold  Converged?
 Maximum Force            0.127766     0.000450     NO 
 RMS     Force            0.016434     0.000300     NO 
 Maximum Displacement     0.189976     0.001800     NO 
 RMS     Displacement     0.055878     0.001200     NO 
 Predicted change in Energy=-1.430323D-02
 GradGradGradGradGradGradGradGradGradGradGradGradGradGradGradGradGradGrad

                          Input orientation:                          
 ---------------------------------------------------------------------
 Center     Atomic      Atomic             Coordinates (Angstroms)
 Number     Number       Type             X           Y           Z
 ---------------------------------------------------------------------
      1          6           0        3.771170    0.956918    0.399780
      2          8           0        2.980618    1.739671    0.915610
      3          7           0        3.615585    0.589713   -0.986977
      4          6           0        4.419068   -0.269335   -1.719270
      5          1           0        2.849752    1.072837   -1.443489
      6          7           0        4.117368   -0.404268   -3.068085
      7          1           0        3.176309   -0.310513   -3.386216
      8          1           0        4.641099   -1.107384   -3.537689
      9          7           0        5.454041   -0.901449   -1.219843
     10          6           0        5.653364   -0.610404    0.102449
     11          6           0        4.914469    0.243774    0.937174
     12          7           0        5.453662    0.284552    2.219567
     13          6           0        6.495930   -0.533053    2.163595
     14          7           0        6.662294   -1.106914    0.900060
     15          1           0        7.149545   -0.757566    2.986357
     16          1           0        7.374775   -1.757981    0.610317
 ---------------------------------------------------------------------
                    Distance matrix (angstroms):
                    1          2          3          4          5
     1  C    0.000000
     2  O    1.226278   0.000000
     3  N    1.442962   2.312018   0.000000
     4  C    2.532556   3.612179   1.385569   0.000000
     5  H    2.063998   2.455024   1.014058   2.083323   0.000000
     6  N    3.741492   4.664601   2.360253   1.388715   2.535350
     7  H    4.036583   4.769408   2.599946   2.079629   2.407173
     8  H    4.530096   5.540288   3.230781   2.014515   3.513966
     9  N    2.984755   4.201607   2.378595   1.311551   3.275690
    10  C    2.467297   3.650706   2.603780   2.226763   3.617107
    11  C    1.450689   2.444986   2.347154   2.750527   3.258521
    12  N    2.567972   3.151765   3.708581   4.109941   4.562863
    13  C    3.571467   4.368085   4.413966   4.411298   5.374436
    14  N    3.587239   4.653820   3.965084   3.548872   4.977853
    15  H    4.587293   5.282438   5.485564   5.462307   6.439110
    16  H    4.516743   5.624535   4.711106   4.047128   5.719046
                    6          7          8          9         10
     6  N    0.000000
     7  H    0.997793   0.000000
     8  H    0.994582   1.674383   0.000000
     9  N    2.334498   3.198506   2.464892   0.000000
    10  C    3.529031   4.289117   3.810810   1.368537   0.000000
    11  C    4.134904   4.692562   4.682388   2.501080   1.404405
    12  N    5.497219   6.079905   5.978607   3.638151   2.307166
    13  C    5.748445   6.470689   6.022864   3.559340   2.228054
    14  N    4.766186   5.581981   4.876355   2.448689   1.378639
    15  H    6.780500   7.523041   6.998417   4.537351   3.252251
    16  H    5.096457   5.974492   5.010211   2.787894   2.130286
                   11         12         13         14         15
    11  C    0.000000
    12  N    1.391734   0.000000
    13  C    2.146763   1.325872   0.000000
    14  N    2.209215   2.266732   1.397682   0.000000
    15  H    3.193337   2.133073   1.074502   2.170736   0.000000
    16  H    3.188568   3.233002   2.164599   1.007704   2.587880
                   16
    16  H    0.000000
 Stoichiometry    C5H5N5O
 Framework group  C1[X(C5H5N5O)]
 Deg. of freedom    42
 Full point group                 C1      NOp   1
 Largest Abelian subgroup         C1      NOp   1
 Largest concise Abelian subgroup C1      NOp   1
                         Standard orientation:                         
 ---------------------------------------------------------------------
 Center     Atomic      Atomic             Coordinates (Angstroms)
 Number     Number       Type             X           Y           Z
 ---------------------------------------------------------------------
      1          6           0       -0.205409    1.489060   -0.003476
      2          8           0       -0.177793    2.715027   -0.002856
      3          7           0       -1.473169    0.800004    0.007725
      4          6           0       -1.679810   -0.570055    0.001475
      5          1           0       -2.268334    1.428160   -0.030283
      6          7           0       -2.998585   -0.999435   -0.069208
      7          1           0       -3.729838   -0.450326    0.329965
      8          1           0       -3.117168   -1.981053    0.038299
      9          7           0       -0.709769   -1.452756    0.006300
     10          6           0        0.527050   -0.866965    0.010844
     11          6           0        0.854567    0.498716    0.009505
     12          7           0        2.233625    0.685573   -0.004832
     13          6           0        2.731399   -0.543310   -0.007078
     14          7           0        1.737817   -1.526248    0.004923
     15          1           0        3.778241   -0.785535   -0.005502
     16          1           0        1.863216   -2.526113    0.008385
 ---------------------------------------------------------------------
 Rotational constants (GHZ):      1.8791195      1.1009560      0.6945636
 Standard basis: 6-31G (6D, 7F)
 There are   109 symmetry adapted basis functions of A   symmetry.
 Integral buffers will be    131072 words long.
 Raffenetti 2 integral format.
 Two-electron integral symmetry is turned on.
   109 basis functions,   262 primitive gaussians,   109 cartesian basis functions
    39 alpha electrons       39 beta electrons
       nuclear repulsion energy       590.2206386708 Hartrees.
 NAtoms=   16 NActive=   16 NUniq=   16 SFac= 7.50D-01 NAtFMM=   80 NAOKFM=F Big=F
 One-electron integrals computed using PRISM.
 NBasis=   109 RedAO= T  NBF=   109
 NBsUse=   109 1.00D-06 NBFU=   109
 Initial guess read from the read-write file.
 B after Tr=     0.000000    0.000000    0.000000
         Rot=    1.000000    0.000000    0.000000    0.000000 Ang=   0.00 deg.
 Initial guess orbital symmetries:
       Occupied  (A) (A) (A) (A) (A) (A) (A) (A) (A) (A) (A) (A)
                 (A) (A) (A) (A) (A) (A) (A) (A) (A) (A) (A) (A)
                 (A) (A) (A) (A) (A) (A) (A) (A) (A) (A) (A) (A)
                 (A) (A) (A)
       Virtual   (A) (A) (A) (A) (A) (A) (A) (A) (A) (A) (A) (A)
                 (A) (A) (A) (A) (A) (A) (A) (A) (A) (A) (A) (A)
                 (A) (A) (A) (A) (A) (A) (A) (A) (A) (A) (A) (A)
                 (A) (A) (A) (A) (A) (A) (A) (A) (A) (A) (A) (A)
                 (A) (A) (A) (A) (A) (A) (A) (A) (A) (A) (A) (A)
                 (A) (A) (A) (A) (A) (A) (A) (A) (A) (A)
 Harris functional with IExCor=  402 diagonalized for initial guess.
 ExpMin= 1.61D-01 ExpMax= 5.48D+03 ExpMxC= 8.25D+02 IAcc=1 IRadAn=         1 AccDes= 0.00D+00
 HarFok:  IExCor=  402 AccDes= 0.00D+00 IRadAn=         1 IDoV= 1
 ScaDFX=  1.000000  1.000000  1.000000  1.000000
 FoFCou: FMM=F IPFlag=           0 FMFlag=      100000 FMFlg1=           0
         NFxFlg=           0 DoJE=T BraDBF=F KetDBF=T FulRan=T
         Omega=  0.000000  0.000000  1.000000  0.000000  0.000000 ICntrl=     500 IOpCl=  0
         NMat0=    1 NMatS0=    1 NMatT0=    0 NMatD0=    1 NMtDS0=    0 NMtDT0=    0
         I1Cent=           4 NGrid=           0.
 Petite list used in FoFCou.
 Requested convergence on RMS density matrix=1.00D-08 within 128 cycles.
 Requested convergence on MAX density matrix=1.00D-06.
 Requested convergence on             energy=1.00D-06.
 No special actions if energy rises.
 Keep R1 ints in memory in canonical form, NReq=19093211.
 Integral accuracy reduced to 1.0D-05 until final iterations.
 Initial convergence to 1.0D-05 achieved.  Increase integral accuracy.
 SCF Done:  E(RB3LYP) =  -542.366154349     A.U. after   15 cycles
             Convg  =    0.3221D-08             -V/T =  2.0054
 Calling FoFJK, ICntrl=      2127 FMM=F ISym2X=0 I1Cent= 0 IOpClX= 0 NMat=1 NMatS=1 NMatT=0.
 ***** Axes restored to original set *****
 -------------------------------------------------------------------
 Center     Atomic                   Forces (Hartrees/Bohr)
 Number     Number              X              Y              Z
 -------------------------------------------------------------------
      1        6           0.022665444   -0.025223107   -0.007472062
      2        8          -0.012282563    0.013913085    0.008802998
      3        7          -0.003821246    0.001697168   -0.004107818
      4        6          -0.013708444    0.010637735   -0.016601240
      5        1           0.001314863   -0.000018635   -0.000589225
      6        7           0.000878691   -0.001821659    0.019423958
      7        1          -0.010293881    0.006232804   -0.002300284
      8        1           0.011524305   -0.007611766   -0.007445493
      9        7           0.005395560   -0.002871654    0.008187828
     10        6           0.003724340    0.000636296    0.006055968
     11        6          -0.009376280    0.007614814   -0.006216241
     12        7           0.004375758   -0.004928452   -0.003403296
     13        6           0.000905973   -0.001113609    0.002592581
     14        7          -0.002744373    0.002928791    0.002255990
     15        1           0.001664441   -0.000489921    0.001087044
     16        1          -0.000222587    0.000418110   -0.000270707
 -------------------------------------------------------------------
 Cartesian Forces:  Max     0.025223107 RMS     0.008475274

 GradGradGradGradGradGradGradGradGradGradGradGradGradGradGradGradGradGrad
 Berny optimization.
 Using GEDIIS/GDIIS optimizer.
 Internal  Forces:  Max     0.020502212 RMS     0.004353325
 Search for a local minimum.
 Step number   3 out of a maximum of   89
 All quantities printed in internal units (Hartrees-Bohrs-Radians)
 Mixed Optimization -- RFO/linear search
 Update second derivatives using D2CorX and points    2    3
 DE= -1.82D-02 DEPred=-1.43D-02 R= 1.28D+00
 SS=  1.41D+00  RLast= 5.46D-01 DXNew= 8.4853D-01 1.6378D+00
 Trust test= 1.28D+00 RLast= 5.46D-01 DXMaxT set to 8.49D-01
 Use linear search instead of GDIIS.
     Eigenvalues ---    0.01519   0.02038   0.02240   0.02285   0.02288
     Eigenvalues ---    0.02305   0.02323   0.02362   0.02368   0.02381
     Eigenvalues ---    0.02386   0.02405   0.02948   0.15849   0.15989
     Eigenvalues ---    0.16000   0.16006   0.16110   0.22812   0.23296
     Eigenvalues ---    0.24241   0.24843   0.24992   0.25080   0.26335
     Eigenvalues ---    0.35477   0.35916   0.37294   0.40944   0.42810
     Eigenvalues ---    0.46254   0.46272   0.47230   0.49201   0.49650
     Eigenvalues ---    0.52524   0.53252   0.53736   0.55545   0.55823
     Eigenvalues ---    0.57066   1.455631000.000001000.000001000.00000
     Eigenvalues --- 1000.000001000.000001000.000001000.000001000.00000
     Eigenvalues --- 1000.000001000.000001000.000001000.000001000.00000
     Eigenvalues --- 1000.000001000.000001000.000001000.000001000.00000
     Eigenvalues --- 1000.000001000.000001000.000001000.000001000.00000
     Eigenvalues --- 1000.000001000.000001000.000001000.000001000.00000
     Eigenvalues --- 1000.000001000.000001000.000001000.000001000.00000
     Eigenvalues --- 1000.000001000.000001000.000001000.00000
 RFO step:  Lambda=-4.33598188D-03 EMin= 1.51880990D-02
 Quartic linear search produced a step of -0.02649.
 Iteration  1 RMS(Cart)=  0.02029457 RMS(Int)=  0.00143242
 Iteration  2 RMS(Cart)=  0.00109400 RMS(Int)=  0.00099215
 Iteration  3 RMS(Cart)=  0.00000147 RMS(Int)=  0.00099215
 Iteration  4 RMS(Cart)=  0.00000000 RMS(Int)=  0.00099215
 Variable       Old X    -DE/DX   Delta X   Delta X   Delta X     New X
                                 (Linear)    (Quad)   (Total)
    R1        2.31733   0.02050  -0.00261   0.02301   0.02040   2.33773
    R2        2.72680   0.00240  -0.00213   0.01348   0.01140   2.73821
    R3        2.74141  -0.00693  -0.00094  -0.00948  -0.01042   2.73098
    R4        2.61835  -0.00402  -0.00060  -0.00308  -0.00364   2.61471
    R5        1.91629  -0.00074  -0.00017  -0.00097  -0.00114   1.91515
    R6        2.62429  -0.00955   0.00079  -0.02360  -0.02281   2.60148
    R7        2.47847   0.01265   0.00083   0.01943   0.02026   2.49873
    R8        1.88556   0.01103   0.00247   0.02123   0.02370   1.90926
    R9        1.87949   0.01496   0.00249   0.03142   0.03391   1.91340
   R10        2.58616   0.00046  -0.00061   0.00307   0.00241   2.58857
   R11        2.65394  -0.00568  -0.00004  -0.01125  -0.01135   2.64259
   R12        2.60525   0.00023  -0.00111   0.00342   0.00229   2.60754
   R13        2.63000   0.00281  -0.00135   0.00939   0.00805   2.63804
   R14        2.50553  -0.00123   0.00075  -0.00389  -0.00313   2.50240
   R15        2.64124  -0.00259  -0.00116   0.00058  -0.00058   2.64066
   R16        2.03051   0.00195   0.00020   0.00427   0.00447   2.03499
   R17        1.90428  -0.00035   0.00006  -0.00077  -0.00071   1.90357
    A1        2.09115  -0.00311   0.00090  -0.01219  -0.01153   2.07963
    A2        2.29968  -0.00436  -0.00285  -0.00514  -0.00823   2.29145
    A3        1.89219   0.00749   0.00195   0.01797   0.01974   1.91193
    A4        2.21828  -0.00492  -0.00135  -0.01325  -0.01452   2.20375
    A5        1.97451   0.00324   0.00152   0.00861   0.01009   1.98460
    A6        2.08909   0.00167  -0.00017   0.00467   0.00447   2.09356
    A7        2.03486   0.00383   0.00104   0.00981   0.01078   2.04564
    A8        2.15936  -0.00445  -0.00033  -0.01079  -0.01116   2.14820
    A9        2.08801   0.00064  -0.00073   0.00186   0.00105   2.08906
   A10        2.10069  -0.00115  -0.00349   0.02714   0.01892   2.11961
   A11        1.99642   0.00119  -0.00184   0.03660   0.02999   2.02640
   A12        1.99602   0.00326  -0.00215   0.05463   0.04718   2.04320
   A13        1.96098   0.00495   0.00164   0.01626   0.01782   1.97880
   A14        2.24849  -0.00389  -0.00205  -0.00863  -0.01075   2.23774
   A15        2.20061   0.00155   0.00181   0.00238   0.00425   2.20487
   A16        1.83404   0.00234   0.00016   0.00636   0.00654   1.84058
   A17        2.08686   0.00083   0.00012  -0.00109  -0.00104   2.08582
   A18        2.25527   0.00360   0.00041   0.01395   0.01438   2.26965
   A19        1.94084  -0.00443  -0.00054  -0.01265  -0.01319   1.92765
   A20        1.82099   0.00475   0.00068   0.01539   0.01608   1.83706
   A21        1.96592  -0.00456  -0.00095  -0.01377  -0.01475   1.95117
   A22        2.18304   0.00283  -0.00014   0.01166   0.01150   2.19454
   A23        2.13416   0.00173   0.00109   0.00225   0.00332   2.13748
   A24        1.86298   0.00190   0.00065   0.00471   0.00533   1.86831
   A25        2.19416  -0.00126  -0.00013  -0.00494  -0.00506   2.18909
   A26        2.22605  -0.00064  -0.00051   0.00024  -0.00026   2.22578
    D1        3.13510  -0.00024  -0.00102  -0.00701  -0.00801   3.12709
    D2        0.04912  -0.00026  -0.00111  -0.00792  -0.00899   0.04013
    D3       -0.02354   0.00072  -0.00017   0.02718   0.02702   0.00348
    D4       -3.10952   0.00071  -0.00026   0.02627   0.02604  -3.08348
    D5        3.13691   0.00068   0.00027   0.02255   0.02283  -3.12345
    D6       -0.02927   0.00092  -0.00033   0.03391   0.03361   0.00434
    D7        0.01514  -0.00049  -0.00067  -0.01717  -0.01790  -0.00276
    D8        3.13215  -0.00025  -0.00127  -0.00581  -0.00712   3.12503
    D9       -3.07376  -0.00095   0.00129  -0.03632  -0.03496  -3.10872
   D10        0.02058  -0.00039   0.00075  -0.01443  -0.01364   0.00694
   D11        0.00895  -0.00091   0.00144  -0.03530  -0.03381  -0.02486
   D12        3.10329  -0.00034   0.00090  -0.01341  -0.01249   3.09080
   D13       -0.53725   0.00336  -0.00237   0.10665   0.10538  -0.43187
   D14       -3.01963  -0.00292   0.00645  -0.09375  -0.08825  -3.10788
   D15        2.64956   0.00298  -0.00186   0.08608   0.08517   2.73473
   D16        0.16718  -0.00331   0.00696  -0.11433  -0.10846   0.05872
   D17       -0.00580  -0.00038  -0.00041  -0.01037  -0.01064  -0.01644
   D18        3.08718   0.00027  -0.00091   0.01234   0.01143   3.09861
   D19       -0.00128   0.00054  -0.00050   0.01979   0.01925   0.01797
   D20       -3.13125   0.00028   0.00182   0.00583   0.00765  -3.12359
   D21       -0.00472  -0.00004   0.00109  -0.00478  -0.00366  -0.00838
   D22       -3.12588  -0.00034   0.00157  -0.01456  -0.01281  -3.13870
   D23        3.12714   0.00018  -0.00074   0.00691   0.00605   3.13319
   D24        0.00597  -0.00011  -0.00026  -0.00287  -0.00310   0.00287
   D25        3.12668   0.00032  -0.00173   0.01585   0.01431   3.14099
   D26       -0.01456   0.00029  -0.00166   0.01460   0.01308  -0.00148
   D27       -0.00553   0.00014   0.00027   0.00467   0.00495  -0.00058
   D28        3.13642   0.00012   0.00034   0.00341   0.00373   3.14014
   D29       -3.12252  -0.00027   0.00068  -0.01103  -0.01033  -3.13285
   D30       -0.00386   0.00000   0.00013  -0.00033  -0.00021  -0.00407
   D31        0.00019   0.00011   0.00004   0.00349   0.00351   0.00370
   D32       -3.12841  -0.00021   0.00021  -0.00801  -0.00780  -3.13621
   D33        0.00351  -0.00018  -0.00021  -0.00540  -0.00555  -0.00203
   D34       -3.13844  -0.00016  -0.00028  -0.00411  -0.00429   3.14046
   D35        3.13253   0.00014  -0.00039   0.00582   0.00541   3.13794
   D36       -0.00942   0.00017  -0.00046   0.00711   0.00667  -0.00275
         Item               Value     Threshold  Converged?
 Maximum Force            0.020502     0.000450     NO 
 RMS     Force            0.004353     0.000300     NO 
 Maximum Displacement     0.069508     0.001800     NO 
 RMS     Displacement     0.019875     0.001200     NO 
 Predicted change in Energy=-2.389300D-03
 GradGradGradGradGradGradGradGradGradGradGradGradGradGradGradGradGradGrad

                          Input orientation:                          
 ---------------------------------------------------------------------
 Center     Atomic      Atomic             Coordinates (Angstroms)
 Number     Number       Type             X           Y           Z
 ---------------------------------------------------------------------
      1          6           0        3.768570    0.940139    0.399144
      2          8           0        2.984048    1.744896    0.916097
      3          7           0        3.603621    0.591452   -0.997567
      4          6           0        4.401075   -0.274492   -1.724669
      5          1           0        2.847519    1.087666   -1.454915
      6          7           0        4.097446   -0.441051   -3.057041
      7          1           0        3.165207   -0.275951   -3.409817
      8          1           0        4.672432   -1.101116   -3.565880
      9          7           0        5.437380   -0.910100   -1.204592
     10          6           0        5.652757   -0.610259    0.114537
     11          6           0        4.913649    0.243428    0.939437
     12          7           0        5.464160    0.279766    2.221784
     13          6           0        6.506994   -0.535091    2.176510
     14          7           0        6.666696   -1.103434    0.909963
     15          1           0        7.169105   -0.755441    2.996693
     16          1           0        7.378391   -1.751815    0.613657
 ---------------------------------------------------------------------
                    Distance matrix (angstroms):
                    1          2          3          4          5
     1  C    0.000000
     2  O    1.237073   0.000000
     3  N    1.448997   2.318709   0.000000
     4  C    2.527049   3.613798   1.383644   0.000000
     5  H    2.075484   2.464201   1.013453   2.083694   0.000000
     6  N    3.736450   4.669458   2.356132   1.376643   2.542852
     7  H    4.043650   4.778093   2.600682   2.089760   2.404583
     8  H    4.550286   5.571224   3.256283   2.036418   3.546442
     9  N    2.963153   4.191081   2.379115   1.322273   3.280413
    10  C    2.456602   3.648460   2.622945   2.249917   3.635311
    11  C    1.445174   2.445058   2.364165   2.761962   3.273309
    12  N    2.575487   3.162654   3.731350   4.124541   4.584498
    13  C    3.582499   4.381567   4.446733   4.440946   5.404844
    14  N    3.582772   4.655632   3.986694   3.572319   4.997967
    15  H    4.602813   5.300497   5.520952   5.494048   6.472246
    16  H    4.508152   5.623940   4.726079   4.063823   5.733275
                    6          7          8          9         10
     6  N    0.000000
     7  H    1.010336   0.000000
     8  H    1.012529   1.725393   0.000000
     9  N    2.333880   3.229231   2.489441   0.000000
    10  C    3.536457   4.326747   3.840240   1.369814   0.000000
    11  C    4.136004   4.716229   4.707852   2.490337   1.398400
    12  N    5.500315   6.108104   6.002560   3.627195   2.295257
    13  C    5.762362   6.514733   6.054836   3.566028   2.233183
    14  N    4.772516   5.621890   4.900027   2.453556   1.379853
    15  H    6.795706   7.569973   7.029953   4.546822   3.259941
    16  H    5.094774   6.009778   5.021369   2.789630   2.128399
                   11         12         13         14         15
    11  C    0.000000
    12  N    1.395993   0.000000
    13  C    2.162219   1.324215   0.000000
    14  N    2.210900   2.253932   1.397376   0.000000
    15  H    3.212028   2.139854   1.076869   2.174387   0.000000
    16  H    3.187802   3.221440   2.163853   1.007326   2.591414
                   16
    16  H    0.000000
 Stoichiometry    C5H5N5O
 Framework group  C1[X(C5H5N5O)]
 Deg. of freedom    42
 Full point group                 C1      NOp   1
 Largest Abelian subgroup         C1      NOp   1
 Largest concise Abelian subgroup C1      NOp   1
                         Standard orientation:                         
 ---------------------------------------------------------------------
 Center     Atomic      Atomic             Coordinates (Angstroms)
 Number     Number       Type             X           Y           Z
 ---------------------------------------------------------------------
      1          6           0       -0.214221    1.478408    0.008318
      2          8           0       -0.189216    2.715131   -0.007160
      3          7           0       -1.493558    0.798092    0.000693
      4          6           0       -1.692413   -0.571187   -0.000533
      5          1           0       -2.288057    1.424823   -0.054679
[...]
 ! A12   A(7,6,8)              119.3875         -DE/DX =    0.0                 !
 ! A13   A(4,9,10)             113.4489         -DE/DX =    0.0                 !
 ! A14   A(9,10,11)            128.0993         -DE/DX =    0.0                 !
 ! A15   A(9,10,14)            126.37           -DE/DX =    0.0                 !
 ! A16   A(11,10,14)           105.5307         -DE/DX =    0.0                 !
 ! A17   A(1,11,10)            119.3766         -DE/DX =    0.0                 !
 ! A18   A(1,11,12)            130.2042         -DE/DX =    0.0                 !
 ! A19   A(10,11,12)           110.4192         -DE/DX =    0.0                 !
 ! A20   A(11,12,13)           105.0659         -DE/DX =    0.0                 !
 ! A21   A(12,13,14)           112.0383         -DE/DX =    0.0                 !
 ! A22   A(12,13,15)           125.6383         -DE/DX =    0.0                 !
 ! A23   A(14,13,15)           122.3234         -DE/DX =    0.0                 !
 ! A24   A(10,14,13)           106.9459         -DE/DX =    0.0001              !
 ! A25   A(10,14,16)           125.3305         -DE/DX =    0.0                 !
 ! A26   A(13,14,16)           127.7236         -DE/DX =    0.0                 !
 ! D1    D(2,1,3,4)            180.0002         -DE/DX =    0.0                 !
 ! D2    D(2,1,3,5)              0.0239         -DE/DX =    0.0                 !
 ! D3    D(11,1,3,4)            -0.0175         -DE/DX =    0.0                 !
 ! D4    D(11,1,3,5)          -179.9937         -DE/DX =    0.0                 !
 ! D5    D(2,1,11,10)         -180.0122         -DE/DX =    0.0                 !
 ! D6    D(2,1,11,12)           -0.0317         -DE/DX =    0.0                 !
 ! D7    D(3,1,11,10)            0.0083         -DE/DX =    0.0                 !
 ! D8    D(3,1,11,12)         -180.0112         -DE/DX =    0.0                 !
 ! D9    D(1,3,4,6)           -180.0159         -DE/DX =    0.0                 !
 ! D10   D(1,3,4,9)              0.0141         -DE/DX =    0.0                 !
 ! D11   D(5,3,4,6)             -0.0413         -DE/DX =    0.0                 !
 ! D12   D(5,3,4,9)            179.9886         -DE/DX =    0.0                 !
 ! D13   D(3,4,6,7)              0.0457         -DE/DX =    0.0                 !
 ! D14   D(3,4,6,8)            180.0337         -DE/DX =    0.0                 !
 ! D15   D(9,4,6,7)            180.0169         -DE/DX =    0.0                 !
 ! D16   D(9,4,6,8)              0.0049         -DE/DX =    0.0                 !
 ! D17   D(3,4,9,10)             0.0004         -DE/DX =    0.0                 !
 ! D18   D(6,4,9,10)           180.0306         -DE/DX =    0.0                 !
 ! D19   D(4,9,10,11)           -0.0096         -DE/DX =    0.0                 !
 ! D20   D(4,9,10,14)         -179.9918         -DE/DX =    0.0                 !
 ! D21   D(9,10,11,1)            0.0047         -DE/DX =    0.0                 !
 ! D22   D(9,10,11,12)         180.0205         -DE/DX =    0.0                 !
 ! D23   D(14,10,11,1)         179.9898         -DE/DX =    0.0                 !
 ! D24   D(14,10,11,12)          0.0057         -DE/DX =    0.0                 !
 ! D25   D(9,10,14,13)         179.9836         -DE/DX =    0.0                 !
 ! D26   D(9,10,14,16)          -0.0177         -DE/DX =    0.0                 !
 ! D27   D(11,10,14,13)         -0.0019         -DE/DX =    0.0                 !
 ! D28   D(11,10,14,16)       -180.0032         -DE/DX =    0.0                 !
 ! D29   D(1,11,12,13)        -179.9892         -DE/DX =    0.0                 !
 ! D30   D(10,11,12,13)         -0.0073         -DE/DX =    0.0                 !
 ! D31   D(11,12,13,14)          0.0061         -DE/DX =    0.0                 !
 ! D32   D(11,12,13,15)        180.0106         -DE/DX =    0.0                 !
 ! D33   D(12,13,14,10)         -0.0027         -DE/DX =    0.0                 !
 ! D34   D(12,13,14,16)       -180.0014         -DE/DX =    0.0                 !
 ! D35   D(15,13,14,10)        179.9929         -DE/DX =    0.0                 !
 ! D36   D(15,13,14,16)         -0.0058         -DE/DX =    0.0                 !
 --------------------------------------------------------------------------------
 GradGradGradGradGradGradGradGradGradGradGradGradGradGradGradGradGradGrad

                          Input orientation:                          
 ---------------------------------------------------------------------
 Center     Atomic      Atomic             Coordinates (Angstroms)
 Number     Number       Type             X           Y           Z
 ---------------------------------------------------------------------
      1          6           0        3.779677    0.933792    0.393525
      2          8           0        2.985019    1.734188    0.917186
      3          7           0        3.593958    0.574967   -0.992817
      4          6           0        4.384878   -0.295482   -1.718025
      5          1           0        2.798436    1.031887   -1.421708
      6          7           0        4.060418   -0.519203   -3.024551
      7          1           0        3.278462   -0.082243   -3.479927
      8          1           0        4.642142   -1.155060   -3.543995
      9          7           0        5.436708   -0.916736   -1.199124
     10          6           0        5.655584   -0.610658    0.112928
     11          6           0        4.918892    0.252753    0.933365
     12          7           0        5.469457    0.293782    2.216381
     13          6           0        6.508982   -0.522320    2.170602
     14          7           0        6.666666   -1.100684    0.907526
     15          1           0        7.174220   -0.737670    2.989649
     16          1           0        7.375551   -1.752714    0.612325
 ---------------------------------------------------------------------
                    Distance matrix (angstroms):
                    1          2          3          4          5
     1  C    0.000000
     2  O    1.243517   0.000000
     3  N    1.444019   2.315752   0.000000
     4  C    2.517146   3.608808   1.381725   0.000000
     5  H    2.065800   2.449176   1.012708   2.089619   0.000000
     6  N    3.724681   4.665998   2.354301   1.364674   2.562729
     7  H    4.035737   4.766564   2.591752   2.091394   2.389137
     8  H    4.539958   5.567400   3.255794   2.034509   3.561754
     9  N    2.950718   4.185324   2.379805   1.327238   3.287423
    10  C    2.446034   3.643768   2.622724   2.250871   3.635430
    11  C    1.432848   2.436140   2.359968   2.759638   3.263396
    12  N    2.566666   3.152001   3.727669   4.123480   4.573275
    13  C    3.567543   4.368202   4.439439   4.436743   5.393366
    14  N    3.569032   4.646624   3.982543   3.570493   4.993635
    15  H    4.588743   5.287210   5.513740   5.489822   6.460563
    16  H    4.493940   5.614997   4.721761   4.061795   5.730730
                    6          7          8          9         10
     6  N    0.000000
     7  H    1.004866   0.000000
     8  H    1.006250   1.736279   0.000000
     9  N    2.320429   3.249072   2.487279   0.000000
    10  C    3.520894   4.340339   3.833605   1.364943   0.000000
    11  C    4.122862   4.720210   4.701626   2.486633   1.400467
    12  N    5.487595   6.114718   5.997127   3.623823   2.297208
    13  C    5.743264   6.523680   6.045004   3.558143   2.229375
    14  N    4.753091   5.636213   4.890573   2.446345   1.376153
    15  H    6.775994   7.580365   7.019554   4.538373   3.255443
    16  H    5.073315   6.026868   5.010361   2.781963   2.124141
                   11         12         13         14         15
    11  C    0.000000
    12  N    1.396759   0.000000
    13  C    2.158675   1.322395   0.000000
    14  N    2.210695   2.256312   1.398116   0.000000
    15  H    3.208698   2.137300   1.076919   2.173620   0.000000
    16  H    3.187497   3.224024   2.166342   1.007375   2.592782
                   16
    16  H    0.000000
 Stoichiometry    C5H5N5O
 Framework group  C1[X(C5H5N5O)]
 Deg. of freedom    42
 Full point group                 C1      NOp   1
 Largest Abelian subgroup         C1      NOp   1
 Largest concise Abelian subgroup C1      NOp   1
                         Standard orientation:                         
 ---------------------------------------------------------------------
 Center     Atomic      Atomic             Coordinates (Angstroms)
 Number     Number       Type             X           Y           Z
 ---------------------------------------------------------------------
      1          6           0       -0.209976    1.467838   -0.000073
      2          8           0       -0.180007    2.710994    0.000103
      3          7           0       -1.491556    0.802448   -0.000049
      4          6           0       -1.695626   -0.564124   -0.000224
      5          1           0       -2.275631    1.443388   -0.000272
      6          7           0       -2.981866   -1.020108    0.000165
      7          1           0       -3.781441   -0.411473   -0.000102
      8          1           0       -3.120010   -2.016831    0.000558
      9          7           0       -0.700092   -1.441890   -0.000166
     10          6           0        0.535469   -0.861839    0.000089
     11          6           0        0.849338    0.503003    0.000104
     12          7           0        2.234248    0.684549   -0.000061
     13          6           0        2.741034   -0.536884   -0.000009
     14          7           0        1.745066   -1.518096    0.000045
     15          1           0        3.789909   -0.781046    0.000062
     16          1           0        1.865195   -2.518283    0.000070
 ---------------------------------------------------------------------
 Rotational constants (GHZ):      1.8900931      1.0980217      0.6945394

 **********************************************************************

            Population analysis using the SCF density.

 **********************************************************************

 Orbital symmetries:
       Occupied  (A) (A) (A) (A) (A) (A) (A) (A) (A) (A) (A) (A)
                 (A) (A) (A) (A) (A) (A) (A) (A) (A) (A) (A) (A)
                 (A) (A) (A) (A) (A) (A) (A) (A) (A) (A) (A) (A)
                 (A) (A) (A)
       Virtual   (A) (A) (A) (A) (A) (A) (A) (A) (A) (A) (A) (A)
                 (A) (A) (A) (A) (A) (A) (A) (A) (A) (A) (A) (A)
                 (A) (A) (A) (A) (A) (A) (A) (A) (A) (A) (A) (A)
                 (A) (A) (A) (A) (A) (A) (A) (A) (A) (A) (A) (A)
                 (A) (A) (A) (A) (A) (A) (A) (A) (A) (A) (A) (A)
                 (A) (A) (A) (A) (A) (A) (A) (A) (A) (A)
 The electronic state is 1-A.
 Alpha  occ. eigenvalues --  -19.11363 -14.39758 -14.39504 -14.37837 -14.34003
 Alpha  occ. eigenvalues --  -14.33028 -10.33441 -10.30216 -10.26974 -10.25382
 Alpha  occ. eigenvalues --  -10.21052  -1.05753  -1.03295  -1.01495  -0.92668
 Alpha  occ. eigenvalues --   -0.91730  -0.88676  -0.77209  -0.68337  -0.67218
 Alpha  occ. eigenvalues --   -0.62987  -0.61288  -0.56164  -0.55579  -0.53180
 Alpha  occ. eigenvalues --   -0.49696  -0.47976  -0.47063  -0.44020  -0.43127
 Alpha  occ. eigenvalues --   -0.40450  -0.39103  -0.31374  -0.30624  -0.28772
 Alpha  occ. eigenvalues --   -0.28225  -0.25980  -0.25219  -0.21060
 Alpha virt. eigenvalues --   -0.01103  -0.00523   0.04263   0.04303   0.07681
 Alpha virt. eigenvalues --    0.09136   0.11308   0.13507   0.15465   0.18545
 Alpha virt. eigenvalues --    0.19686   0.21857   0.24221   0.28431   0.30155
 Alpha virt. eigenvalues --    0.31835   0.34257   0.37046   0.39889   0.44623
 Alpha virt. eigenvalues --    0.48752   0.49203   0.54711   0.55421   0.57152
 Alpha virt. eigenvalues --    0.58610   0.58897   0.62477   0.62521   0.63496
 Alpha virt. eigenvalues --    0.64922   0.66751   0.68267   0.69105   0.70057
 Alpha virt. eigenvalues --    0.70330   0.71332   0.77428   0.79385   0.81992
 Alpha virt. eigenvalues --    0.84509   0.84596   0.84808   0.85893   0.87348
 Alpha virt. eigenvalues --    0.88257   0.89926   0.90760   0.92670   0.93756
 Alpha virt. eigenvalues --    0.94204   1.03446   1.06710   1.07845   1.08897
 Alpha virt. eigenvalues --    1.11030   1.15740   1.21175   1.28777   1.34628
 Alpha virt. eigenvalues --    1.37051   1.40431   1.48066   1.53988   1.62709
 Alpha virt. eigenvalues --    1.70932   1.77368   1.85164   2.00738   2.12687
          Condensed to atoms (all electrons):
              1          2          3          4          5          6
     1  C    4.975199   0.645916   0.043092  -0.015829  -0.002234   0.000474
     2  O    0.645916   7.991556  -0.123652   0.001851   0.008343  -0.000029
     3  N    0.043092  -0.123652   7.833418   0.140674   0.277203  -0.122894
     4  C   -0.015829   0.001851   0.140674   4.487292  -0.015635   0.243443
     5  H   -0.002234   0.008343   0.277203  -0.015635   0.385638  -0.001628
     6  N    0.000474  -0.000029  -0.122894   0.243443  -0.001628   7.096659
     7  H    0.000067  -0.000002  -0.002430  -0.018624   0.002271   0.324910
     8  H    0.000041   0.000001   0.005996  -0.004044  -0.000003   0.305877
     9  N   -0.005782   0.000033  -0.107869   0.578791   0.003319  -0.090527
    10  C   -0.093532   0.003650  -0.013414  -0.068006  -0.000292   0.002550
    11  C   -0.006738  -0.101932  -0.195294  -0.024925   0.010983  -0.000256
    12  N   -0.045973   0.001094   0.002907   0.001043  -0.000032   0.000003
    13  C    0.007298  -0.000010  -0.000466   0.000043   0.000006   0.000000
    14  N    0.005239  -0.000038   0.000384   0.002137   0.000013  -0.000030
    15  H   -0.000155  -0.000001   0.000002   0.000003   0.000000   0.000000
    16  H    0.000122   0.000000   0.000044   0.000004  -0.000001  -0.000011
              7          8          9         10         11         12
     1  C    0.000067   0.000041  -0.005782  -0.093532  -0.006738  -0.045973
     2  O   -0.000002   0.000001   0.000033   0.003650  -0.101932   0.001094
     3  N   -0.002430   0.005996  -0.107869  -0.013414  -0.195294   0.002907
     4  C   -0.018624  -0.004044   0.578791  -0.068006  -0.024925   0.001043
     5  H    0.002271  -0.000003   0.003319  -0.000292   0.010983  -0.000032
     6  N    0.324910   0.305877  -0.090527   0.002550  -0.000256   0.000003
     7  H    0.382673  -0.020360   0.003060  -0.000124  -0.000026   0.000000
     8  H   -0.020360   0.359181   0.004756   0.000267   0.000130   0.000000
     9  N    0.003060   0.004756   6.772111   0.355881  -0.054905   0.006447
    10  C   -0.000124   0.000267   0.355881   5.143896   0.262023  -0.098841
    11  C   -0.000026   0.000130  -0.054905   0.262023   5.861568   0.382013
    12  N    0.000000   0.000000   0.006447  -0.098841   0.382013   6.761603
    13  C    0.000000   0.000000   0.003986  -0.107717  -0.090234   0.488463
    14  N    0.000001  -0.000031  -0.060726   0.193003  -0.108522  -0.091079
    15  H    0.000000   0.000000  -0.000042   0.003215   0.006070  -0.032959
    16  H    0.000000   0.000004   0.002728  -0.013720   0.010154   0.003132
             13         14         15         16
     1  C    0.007298   0.005239  -0.000155   0.000122
     2  O   -0.000010  -0.000038  -0.000001   0.000000
     3  N   -0.000466   0.000384   0.000002   0.000044
     4  C    0.000043   0.002137   0.000003   0.000004
     5  H    0.000006   0.000013   0.000000  -0.000001
     6  N    0.000000  -0.000030   0.000000  -0.000011
     7  H    0.000000   0.000001   0.000000   0.000000
     8  H    0.000000  -0.000031   0.000000   0.000004
     9  N    0.003986  -0.060726  -0.000042   0.002728
    10  C   -0.107717   0.193003   0.003215  -0.013720
    11  C   -0.090234  -0.108522   0.006070   0.010154
    12  N    0.488463  -0.091079  -0.032959   0.003132
    13  C    4.860154   0.218971   0.379730  -0.009635
    14  N    0.218971   7.321575  -0.060291   0.296643
    15  H    0.379730  -0.060291   0.531388   0.001021
    16  H   -0.009635   0.296643   0.001021   0.376038
 Mulliken atomic charges:
              1
     1  C    0.492797
     2  O   -0.426779
     3  N   -0.737702
     4  C    0.691784
     5  H    0.332046
     6  N   -0.758543
     7  H    0.328585
     8  H    0.348185
     9  N   -0.411260
    10  C    0.431161
    11  C    0.049889
    12  N   -0.377822
    13  C    0.249411
    14  N   -0.717250
    15  H    0.172020
    16  H    0.333476
 Sum of Mulliken atomic charges =   0.00000
 Mulliken charges with hydrogens summed into heavy atoms:
              1
     1  C    0.492797
     2  O   -0.426779
     3  N   -0.405655
     4  C    0.691784
     6  N   -0.081773
     9  N   -0.411260
    10  C    0.431161
    11  C    0.049889
    12  N   -0.377822
    13  C    0.421431
    14  N   -0.383774
 Sum of Mulliken charges with hydrogens summed into heavy atoms =   0.00000
 Electronic spatial extent (au):  <R**2>=           1535.7895
 Charge=              0.0000 electrons
 Dipole moment (field-independent basis, Debye):
    X=             -4.1275    Y=             -5.9068    Z=             -0.0004  Tot=              7.2060
 Quadrupole moment (field-independent basis, Debye-Ang):
   XX=            -39.8047   YY=            -70.1373   ZZ=            -64.1083
   XY=             -9.9940   XZ=              0.0019   YZ=             -0.0037
 Traceless Quadrupole moment (field-independent basis, Debye-Ang):
   XX=             18.2121   YY=            -12.1205   ZZ=             -6.0916
   XY=             -9.9940   XZ=              0.0019   YZ=             -0.0037
 Octapole moment (field-independent basis, Debye-Ang**2):
  XXX=            -63.0374  YYY=            -56.0501  ZZZ=             -0.0001  XYY=             -4.3009
  XXY=            -30.4436  XXZ=             -0.0005  XZZ=             -1.4612  YZZ=              3.5423
  YYZ=              0.0039  XYZ=              0.0066
 Hexadecapole moment (field-independent basis, Debye-Ang**3):
 XXXX=           -863.7643 YYYY=           -741.4279 ZZZZ=            -58.6112 XXXY=            -43.9757
 XXXZ=              0.0109 YYYX=            -27.1692 YYYZ=             -0.0193 ZZZX=              0.0010
 ZZZY=             -0.0007 XXYY=           -251.7468 XXZZ=           -229.9499 YYZZ=           -125.1643
 XXYZ=             -0.0207 YYXZ=             -0.0097 ZZXY=             -2.6896
 N-N= 5.902861328557D+02 E-N=-2.446326412721D+03  KE= 5.394046820459D+02
 1\1\GINC-LSQC07\FOpt\RB3LYP\6-31G\C5H5N5O1\LITAO\29-Apr-2015\0\\# opt 
 b3lyp/6-31g\\Title Card Required\\0,1\C,3.7796772022,0.9337917811,0.39
 35252429\O,2.9850192356,1.7341877232,0.9171855295\N,3.5939578201,0.574
 9672379,-0.9928171223\C,4.3848777825,-0.2954823491,-1.7180247294\H,2.7
 984364401,1.0318865185,-1.4217079594\N,4.0604176121,-0.5192029313,-3.0
 24550734\H,3.2784618195,-0.0822431308,-3.4799270178\H,4.6421415491,-1.
 1550600488,-3.5439954825\N,5.4367083737,-0.91673578,-1.1991235486\C,5.
 6555837638,-0.6106578157,0.1129282806\C,4.9188924986,0.2527529036,0.93
 33648457\N,5.4694574673,0.2937817064,2.216380593\C,6.508982057,-0.5223
 198563,2.1706015015\N,6.6666658848,-1.1006839335,0.9075261265\H,7.1742
 196442,-0.7376699734,2.9896490227\H,7.3755508494,-1.7527140519,0.61232
 54515\\Version=EM64L-G09RevA.01\State=1-A\HF=-542.3698353\RMSD=2.065e-
 09\RMSF=5.236e-05\Dipole=0.7284519,-1.4100476,-2.3491898\Quadrupole=2.
 4504382,-5.8097888,3.3593506,-1.1797463,11.5831278,-6.0541998\PG=C01 [
 X(C5H5N5O1)]\\@


 IT IS THE GODS' CUSTOM TO BRING LOW ALL THINGS OF SURPASSING GREATNESS.
     -- HERODOTUS
 IT IS THE LOFTY PINE THAT BY THE STORM IS OFTENER TOSSED;
 TOWERS FALL WITH HEAVIER CRASH WHICH HIGHER SOAR.
     -- HORACE
 THE BIGGER THEY COME, THE HARDER THEY FALL.
     -- BOB FITZSIMONS HEAVYWEIGHT CHAMPION, 1897-1899
 Job cpu time:  0 days  0 hours  5 minutes 57.6 seconds.
 File lengths (MBytes):  RWF=     14 Int=      0 D2E=      0 Chk=      2 Scr=      1
 Normal termination of Gaussian 09 at Wed Apr 29 16:08:46 2015.
