 Entering Gaussian System, Link 0=g09
 Input=opt-c.gjf
 Output=opt-c.log
 Initial command:
 /usr/g09/l1.exe /scratch/litao/gaussian/Gau-1787.inp -scrdir=/scratch/litao/gaussian/
 Entering Link 1 = /usr/g09/l1.exe PID=      1788.
  
 Copyright (c) 1988,1990,1992,1993,1995,1998,2003,2009, Gaussian, Inc.
                  All Rights Reserved.
  
 This is part of the Gaussian(R) 09 program.  It is based on
 the Gaussian(R) 03 system (copyright 2003, Gaussian, Inc.),
 the Gaussian(R) 98 system (copyright 1998, Gaussian, Inc.),
 the Gaussian(R) 94 system (copyright 1995, Gaussian, Inc.),
 the Gaussian 92(TM) system (copyright 1992, Gaussian, Inc.),
 the Gaussian 90(TM) system (copyright 1990, Gaussian, Inc.),
 the Gaussian 88(TM) system (copyright 1988, Gaussian, Inc.),
 the Gaussian 86(TM) system (copyright 1986, Carnegie Mellon
 University), and the Gaussian 82(TM) system (copyright 1983,
 Carnegie Mellon University). Gaussian is a federally registered
 trademark of Gaussian, Inc.
  
 This software contains proprietary and confidential information,
 including trade secrets, belonging to Gaussian, Inc.
  
 This software is provided under written license and may be
 used, copied, transmitted, or stored only in accord with that
 written license.
  
 The following legend is applicable only to US Government
 contracts under FAR:
  
                    RESTRICTED RIGHTS LEGEND
  
 Use, reproduction and disclosure by the US Government is
 subject to restrictions as set forth in subparagraphs (a)
 and (c) of the Commercial Computer Software - Restricted
 Rights clause in FAR 52.227-19.
  
 Gaussian, Inc.
 340 Quinnipiac St., Bldg. 40, Wallingford CT 06492
  
  
 ---------------------------------------------------------------
 Warning -- This program may not be used in any manner that
 competes with the business of Gaussian, Inc. or will provide
 assistance to any competitor of Gaussian, Inc.  The licensee
 of this program is prohibited from giving any competitor of
 Gaussian, Inc. access to this program.  By using this program,
 the user acknowledges that Gaussian, Inc. is engaged in the
 business of creating and licensing software in the field of
 computational chemistry and represents and warrants to the
 licensee that it is not a competitor of Gaussian, Inc. and that
 it will not use this program in any manner prohibited above.
 ---------------------------------------------------------------
  

 Cite this work as:
 Gaussian 09, Revision A.01,
 M. J. Frisch, G. W. Trucks, H. B. Schlegel, G. E. Scuseria, 
 M. A. Robb, J. R. Cheeseman, G. Scalmani, V. Barone, B. Mennucci, 
 G. A. Petersson, H. Nakatsuji, M. Caricato, X. Li, H. P. Hratchian, 
 A. F. Izmaylov, J. Bloino, G. Zheng, J. L. Sonnenberg, M. Hada, 
 M. Ehara, K. Toyota, R. Fukuda, J. Hasegawa, M. Ishida, T. Nakajima, 
 Y. Honda, O. Kitao, H. Nakai, T. Vreven, J. A. Montgomery, Jr., 
 J. E. Peralta, F. Ogliaro, M. Bearpark, J. J. Heyd, E. Brothers, 
 K. N. Kudin, V. N. Staroverov, R. Kobayashi, J. Normand, 
 K. Raghavachari, A. Rendell, J. C. Burant, S. S. Iyengar, J. Tomasi, 
 M. Cossi, N. Rega, J. M. Millam, M. Klene, J. E. Knox, J. B. Cross, 
 V. Bakken, C. Adamo, J. Jaramillo, R. Gomperts, R. E. Stratmann, 
 O. Yazyev, A. J. Austin, R. Cammi, C. Pomelli, J. W. Ochterski, 
 R. L. Martin, K. Morokuma, V. G. Zakrzewski, G. A. Voth, 
 P. Salvador, J. J. Dannenberg, S. Dapprich, A. D. Daniels, 
 O. Farkas, J. B. Foresman, J. V. Ortiz, J. Cioslowski, 
 and D. J. Fox, Gaussian, Inc., Wallingford CT, 2009.
 
 ******************************************
 Gaussian 09:  EM64L-G09RevA.01  8-May-2009
                27-Apr-2015 
 ******************************************
 %nprocshared=1
 Will use up to    1 processors via shared memory.
 %mem=8GB
 %chk=opt-c.chk
 -----------------
 # opt b3lyp/6-31g
 -----------------
 1/14=-1,18=20,19=15,26=3,38=1/1,3;
 2/9=110,12=2,17=6,18=5,40=1/2;
 3/5=1,6=6,11=2,16=1,25=1,30=1,71=1,74=-5/1,2,3;
 4//1;
 5/5=2,38=5/2;
 6/7=2,8=2,9=2,10=2,28=1/1;
 7//1,2,3,16;
 1/14=-1,18=20,19=15/3(2);
 2/9=110/2;
 99//99;
 2/9=110/2;
 3/5=1,6=6,11=2,16=1,25=1,30=1,71=1,74=-5/1,2,3;
 4/5=5,16=3/1;
 5/5=2,38=5/2;
 7//1,2,3,16;
 1/14=-1,18=20,19=15/3(-5);
 2/9=110/2;
 6/7=2,8=2,9=2,10=2,19=2,28=1/1;
 99/9=1/99;
 -------------------
 Title Card Required
 -------------------
 Symbolic Z-matrix:
 Charge =  0 Multiplicity = 1
 C                     0.2199   -1.12077  -0.43316 
 N                     0.81421  -2.28019  -0.98344 
 H                     1.80732  -2.27217  -1.25745 
 H                     0.26338  -3.14114  -1.11566 
 N                     0.96225   0.00611  -0.266 
 C                     0.41516   1.13324   0.26041 
 O                     1.10011   2.13053   0.40057 
 N                    -0.90673   1.14657   0.63303 
 C                    -1.67738   0.03744   0.47964 
 H                    -1.32812   2.01311   1.03796 
 C                    -1.12709  -1.12425  -0.05913 
 H                    -2.71869   0.05525   0.77559 
 H                    -1.73698  -2.01027  -0.18327 
 

 GradGradGradGradGradGradGradGradGradGradGradGradGradGradGradGradGradGrad
 Berny optimization.
 Initialization pass.
                           ----------------------------
                           !    Initial Parameters    !
                           ! (Angstroms and Degrees)  !
 --------------------------                            --------------------------
 ! Name  Definition              Value          Derivative Info.                !
 --------------------------------------------------------------------------------
 ! R1    R(1,2)                  1.4143         estimate D2E/DX2                !
 ! R2    R(1,5)                  1.3597         estimate D2E/DX2                !
 ! R3    R(1,11)                 1.398          estimate D2E/DX2                !
 ! R4    R(2,3)                  1.0302         estimate D2E/DX2                !
 ! R5    R(2,4)                  1.0306         estimate D2E/DX2                !
 ! R6    R(5,6)                  1.359          estimate D2E/DX2                !
 ! R7    R(6,7)                  1.2179         estimate D2E/DX2                !
 ! R8    R(6,8)                  1.3735         estimate D2E/DX2                !
 ! R9    R(8,9)                  1.3593         estimate D2E/DX2                !
 ! R10   R(8,10)                 1.0452         estimate D2E/DX2                !
 ! R11   R(9,11)                 1.3938         estimate D2E/DX2                !
 ! R12   R(9,12)                 1.0827         estimate D2E/DX2                !
 ! R13   R(11,13)                1.0828         estimate D2E/DX2                !
 ! A1    A(2,1,5)              119.8553         estimate D2E/DX2                !
 ! A2    A(2,1,11)             120.4609         estimate D2E/DX2                !
 ! A3    A(5,1,11)             119.6838         estimate D2E/DX2                !
 ! A4    A(1,2,3)              120.1433         estimate D2E/DX2                !
 ! A5    A(1,2,4)              120.6746         estimate D2E/DX2                !
 ! A6    A(3,2,4)              119.1821         estimate D2E/DX2                !
 ! A7    A(1,5,6)              121.0102         estimate D2E/DX2                !
 ! A8    A(5,6,7)              119.8217         estimate D2E/DX2                !
 ! A9    A(5,6,8)              120.0396         estimate D2E/DX2                !
 ! A10   A(7,6,8)              120.1388         estimate D2E/DX2                !
 ! A11   A(6,8,9)              120.473          estimate D2E/DX2                !
 ! A12   A(6,8,10)             120.0781         estimate D2E/DX2                !
 ! A13   A(9,8,10)             119.4489         estimate D2E/DX2                !
 ! A14   A(8,9,11)             119.9922         estimate D2E/DX2                !
 ! A15   A(8,9,12)             120.0675         estimate D2E/DX2                !
 ! A16   A(11,9,12)            119.9403         estimate D2E/DX2                !
 ! A17   A(1,11,9)             118.8013         estimate D2E/DX2                !
 ! A18   A(1,11,13)            120.9366         estimate D2E/DX2                !
 ! A19   A(9,11,13)            120.2621         estimate D2E/DX2                !
 ! D1    D(5,1,2,3)             -0.0033         estimate D2E/DX2                !
 ! D2    D(5,1,2,4)            179.9977         estimate D2E/DX2                !
 ! D3    D(11,1,2,3)           179.9966         estimate D2E/DX2                !
 ! D4    D(11,1,2,4)            -0.0025         estimate D2E/DX2                !
 ! D5    D(2,1,5,6)            179.9998         estimate D2E/DX2                !
 ! D6    D(11,1,5,6)             0.0            estimate D2E/DX2                !
 ! D7    D(2,1,11,9)          -180.0            estimate D2E/DX2                !
 ! D8    D(2,1,11,13)           -0.0003         estimate D2E/DX2                !
 ! D9    D(5,1,11,9)            -0.0001         estimate D2E/DX2                !
 ! D10   D(5,1,11,13)          179.9996         estimate D2E/DX2                !
 ! D11   D(1,5,6,7)            179.9993         estimate D2E/DX2                !
 ! D12   D(1,5,6,8)              0.0002         estimate D2E/DX2                !
 ! D13   D(5,6,8,9)             -0.0002         estimate D2E/DX2                !
 ! D14   D(5,6,8,10)           179.9994         estimate D2E/DX2                !
 ! D15   D(7,6,8,9)           -179.9994         estimate D2E/DX2                !
 ! D16   D(7,6,8,10)             0.0002         estimate D2E/DX2                !
 ! D17   D(6,8,9,11)             0.0001         estimate D2E/DX2                !
 ! D18   D(6,8,9,12)          -179.9996         estimate D2E/DX2                !
 ! D19   D(10,8,9,11)         -179.9995         estimate D2E/DX2                !
 ! D20   D(10,8,9,12)            0.0008         estimate D2E/DX2                !
 ! D21   D(8,9,11,1)             0.0            estimate D2E/DX2                !
 ! D22   D(8,9,11,13)         -179.9997         estimate D2E/DX2                !
 ! D23   D(12,9,11,1)          179.9998         estimate D2E/DX2                !
 ! D24   D(12,9,11,13)           0.0001         estimate D2E/DX2                !
 --------------------------------------------------------------------------------
 Trust Radius=3.00D-01 FncErr=1.00D-07 GrdErr=1.00D-06
 Number of steps in this run=  66 maximum allowed number of steps= 100.
 GradGradGradGradGradGradGradGradGradGradGradGradGradGradGradGradGradGrad

                          Input orientation:                          
 ---------------------------------------------------------------------
 Center     Atomic      Atomic             Coordinates (Angstroms)
 Number     Number       Type             X           Y           Z
 ---------------------------------------------------------------------
      1          6           0        0.219904   -1.120770   -0.433161
      2          7           0        0.814212   -2.280190   -0.983435
      3          1           0        1.807320   -2.272170   -1.257450
      4          1           0        0.263383   -3.141140   -1.115660
      5          7           0        0.962252    0.006113   -0.265997
      6          6           0        0.415156    1.133240    0.260407
      7          8           0        1.100110    2.130530    0.400568
      8          7           0       -0.906734    1.146570    0.633031
      9          6           0       -1.677380    0.037440    0.479639
     10          1           0       -1.328120    2.013110    1.037960
     11          6           0       -1.127090   -1.124250   -0.059127
     12          1           0       -2.718690    0.055247    0.775589
     13          1           0       -1.736980   -2.010270   -0.183266
 ---------------------------------------------------------------------
                    Distance matrix (angstroms):
                    1          2          3          4          5
     1  C    0.000000
     2  N    1.414305   0.000000
     3  H    2.127220   1.030249   0.000000
     4  H    2.132977   1.030597   1.777345   0.000000
     5  N    1.359739   2.400795   2.624441   3.333999   0.000000
     6  C    2.366373   3.654845   3.979802   4.492986   1.358981
     7  O    3.469988   4.631593   4.757409   5.548834   2.230798
     8  N    2.747164   4.161406   4.756868   4.776144   2.366855
     9  C    2.402986   3.704055   4.527131   4.051532   2.743103
    10  H    3.792332   5.206539   5.784766   5.808378   3.312725
    11  C    1.397965   2.441147   3.371122   2.667869   2.384505
    12  H    3.388130   4.585829   5.480409   4.763031   3.825787
    13  H    2.164036   2.687324   3.712752   2.479854   3.370237
                    6          7          8          9         10
     6  C    0.000000
     7  O    1.217947   0.000000
     8  N    1.373470   2.247140   0.000000
     9  C    2.372245   3.478754   1.359262   0.000000
    10  H    2.101849   2.513236   1.045191   2.082541   0.000000
    11  C    2.752614   3.970558   2.384169   1.393776   3.329721
    12  H    3.353874   4.362416   2.120022   1.082696   2.415730
    13  H    3.835387   5.053332   3.364712   2.153163   4.224470
                   11         12         13
    11  C    0.000000
    12  H    2.149687   0.000000
    13  H    1.082778   2.479822   0.000000
 Stoichiometry    C4H5N3O
 Framework group  C1[X(C4H5N3O)]
 Deg. of freedom    33
 Full point group                 C1      NOp   1
 Largest Abelian subgroup         C1      NOp   1
 Largest concise Abelian subgroup C1      NOp   1
                         Standard orientation:                         
 ---------------------------------------------------------------------
 Center     Atomic      Atomic             Coordinates (Angstroms)
 Number     Number       Type             X           Y           Z
 ---------------------------------------------------------------------
      1          6           0        1.165485   -0.207300   -0.000002
      2          7           0        2.465940   -0.763245   -0.000002
      3          1           0        2.591435   -1.785822    0.000050
      4          1           0        3.297818   -0.154878   -0.000040
      5          7           0        0.079520   -1.025573    0.000000
      6          6           0       -1.180578   -0.516669    0.000005
      7          8           0       -2.137887   -1.269632   -0.000006
      8          7           0       -1.372861    0.843274    0.000002
      9          6           0       -0.309398    1.689819    0.000000
     10          1           0       -2.341739    1.235323   -0.000005
     11          6           0        0.987511    1.179290    0.000000
     12          1           0       -0.468555    2.760753    0.000005
     13          1           0        1.837826    1.849642    0.000004
 ---------------------------------------------------------------------
 Rotational constants (GHZ):      3.9231589      1.9623856      1.3080779
 Standard basis: 6-31G (6D, 7F)
 There are    82 symmetry adapted basis functions of A   symmetry.
 Integral buffers will be    131072 words long.
 Raffenetti 2 integral format.
 Two-electron integral symmetry is turned on.
    82 basis functions,   196 primitive gaussians,    82 cartesian basis functions
    29 alpha electrons       29 beta electrons
       nuclear repulsion energy       354.3373793403 Hartrees.
 NAtoms=   13 NActive=   13 NUniq=   13 SFac= 7.50D-01 NAtFMM=   80 NAOKFM=F Big=F
 One-electron integrals computed using PRISM.
 NBasis=    82 RedAO= T  NBF=    82
 NBsUse=    82 1.00D-06 NBFU=    82
 Harris functional with IExCor=  402 diagonalized for initial guess.
 ExpMin= 1.61D-01 ExpMax= 5.48D+03 ExpMxC= 8.25D+02 IAcc=1 IRadAn=         1 AccDes= 0.00D+00
 HarFok:  IExCor=  402 AccDes= 0.00D+00 IRadAn=         1 IDoV= 1
 ScaDFX=  1.000000  1.000000  1.000000  1.000000
 FoFCou: FMM=F IPFlag=           0 FMFlag=      100000 FMFlg1=           0
         NFxFlg=           0 DoJE=T BraDBF=F KetDBF=T FulRan=T
         Omega=  0.000000  0.000000  1.000000  0.000000  0.000000 ICntrl=     500 IOpCl=  0
         NMat0=    1 NMatS0=    1 NMatT0=    0 NMatD0=    1 NMtDS0=    0 NMtDT0=    0
         I1Cent=           4 NGrid=           0.
 Petite list used in FoFCou.
 Initial guess orbital symmetries:
       Occupied  (A) (A) (A) (A) (A) (A) (A) (A) (A) (A) (A) (A)
                 (A) (A) (A) (A) (A) (A) (A) (A) (A) (A) (A) (A)
                 (A) (A) (A) (A) (A)
       Virtual   (A) (A) (A) (A) (A) (A) (A) (A) (A) (A) (A) (A)
                 (A) (A) (A) (A) (A) (A) (A) (A) (A) (A) (A) (A)
                 (A) (A) (A) (A) (A) (A) (A) (A) (A) (A) (A) (A)
                 (A) (A) (A) (A) (A) (A) (A) (A) (A) (A) (A) (A)
                 (A) (A) (A) (A) (A)
 The electronic state of the initial guess is 1-A.
 Requested convergence on RMS density matrix=1.00D-08 within 128 cycles.
 Requested convergence on MAX density matrix=1.00D-06.
 Requested convergence on             energy=1.00D-06.
 No special actions if energy rises.
 Keep R1 ints in memory in canonical form, NReq=6841148.
 Integral accuracy reduced to 1.0D-05 until final iterations.
 Initial convergence to 1.0D-05 achieved.  Increase integral accuracy.
