30
  This energy is -0.00782175 and Call times are: 5292
C	-1.0445	-0.460637	-0.784768
N	-0.267848	-1.2332	-1.58977
C	1.06885	-1.27344	-1.36964
C	-0.422354	0.269261	0.249903
C	0.971137	0.13756	0.367631
N	1.7673	-0.620663	-0.415567
H	1.64008	-1.90388	-2.03918
N	-2.38007	-0.423825	-1.00894
H	-2.76009	-0.969296	-1.76501
H	-2.9816	0.138526	-0.430302
N	-0.925647	1.1357	1.22706
C	0.141733	1.5159	1.91629
N	1.3174	0.94215	1.43953
H	0.130646	2.19156	2.75541
H	2.2517	1.07368	1.79221
C	5.03414	2.33707	-0.273265
C	5.69626	0.992516	-0.177295
H	5.55703	2.97966	-0.990942
H	5.06677	2.85821	0.690446
H	3.98914	2.24586	-0.584549
C	7.10285	0.950115	0.230261
C	5.0674	-0.179374	-0.445888
N	5.70828	-1.40596	-0.347827
H	4.02932	-0.22084	-0.752051
N	7.66416	-0.341653	0.300603
C	7.04083	-1.55415	0.0306475
H	8.63588	-0.394358	0.580583
H	5.21889	-2.26433	-0.5529
O	7.60305	-2.65992	0.114743
O	7.79415	1.95175	0.504814
