30
  This energy is -0.00344277 and Call times are: 452
C	0.300834	0.42983	-1.2821
N	0.414953	1.74374	-0.952409
C	0.22074	2.11619	0.336156
C	-0.0163545	-0.493506	-0.263666
C	-0.19163	0.0262494	1.02945
N	-0.0848673	1.32372	1.3863
H	0.323523	3.17371	0.543847
N	0.495912	0.0626636	-2.57148
H	0.719841	0.772614	-3.24928
H	0.418434	-0.902223	-2.84696
N	-0.201124	-1.88082	-0.272734
C	-0.481121	-2.18744	0.986816
N	-0.488845	-1.07121	1.81906
H	-0.684099	-3.17985	1.35382
H	-0.672961	-1.04477	2.80901
C	4.8472	0.211125	2.76262
C	4.77601	0.212651	1.2625
H	5.00509	-0.803829	3.14516
H	3.90545	0.563687	3.19871
H	5.65888	0.849657	3.12415
C	3.73527	-0.598718	0.626154
C	5.61788	0.920025	0.467644
N	5.52552	0.899698	-0.916517
H	6.40906	1.53982	0.871331
N	3.72295	-0.553458	-0.783273
C	4.57355	0.162419	-1.61728
H	3.01127	-1.10713	-1.24411
H	6.16368	1.43471	-1.48649
O	4.50173	0.153314	-2.85851
O	2.90036	-1.29335	1.24015
