30
  This energy is -2.3288e-05 and Call times are: 8943
C	-0.285781	-0.416783	-1.28983
N	0.183933	0.706917	-1.89376
C	0.694926	1.69989	-1.12582
C	-0.220635	-0.500977	0.116954
C	0.33277	0.599681	0.791725
N	0.806499	1.72698	0.219925
H	1.05475	2.57177	-1.65721
N	-0.795559	-1.40644	-2.06188
H	-0.812369	-1.2823	-3.06083
H	-1.15105	-2.25048	-1.6446
N	-0.609402	-1.49613	1.02105
C	-0.296478	-1.00414	2.21224
N	0.277137	0.262096	2.13306
H	-0.456497	-1.50525	3.15248
H	0.597471	0.839621	2.89362
C	18.7826	1.92422	0.0152634
C	17.5812	1.02462	0.0680546
H	19.191	1.97139	-1.00082
H	19.5861	1.54081	0.654669
H	18.5351	2.93983	0.338509
C	17.7546	-0.372816	-0.336305
C	16.3502	1.43209	0.467264
N	15.2597	0.575128	0.504425
H	16.1517	2.45019	0.778949
N	16.589	-1.16318	-0.263684
C	15.3194	-0.768558	0.141333
H	16.6861	-2.13291	-0.538634
H	14.3536	0.901985	0.805313
O	14.3341	-1.52588	0.179566
O	18.8303	-0.873093	-0.722523
