30
  This energy is -0.00502328 and Call times are: 7555
C	0.410434	1.28951	-0.2962
N	0.118579	1.2147	-1.62183
C	-0.399146	0.0637034	-2.11581
C	0.160518	0.160291	0.511739
C	-0.37813	-0.968456	-0.127644
N	-0.67772	-1.0719	-1.43979
H	-0.613061	0.0580027	-3.17705
N	0.927762	2.44223	0.192649
H	1.08161	3.21097	-0.438984
H	1.15424	2.52872	1.16945
N	0.345275	-0.081228	1.8779
C	-0.0730667	-1.32721	2.05508
N	-0.521985	-1.91275	0.874281
H	-0.076845	-1.85306	2.99542
H	-0.885763	-2.84383	0.750356
C	5.58353	2.36162	-1.33788
C	5.0965	1.19596	-0.525811
H	5.4325	2.18211	-2.40856
H	6.66007	2.51266	-1.19779
H	5.06379	3.28438	-1.06285
C	5.70033	-0.114538	-0.77957
C	4.133	1.28848	0.424995
N	3.70497	0.191221	1.15825
H	3.64491	2.2255	0.663375
N	5.19898	-1.16568	0.0156891
C	4.21427	-1.09505	0.993919
H	5.60259	-2.08072	-0.143084
H	2.98643	0.285439	1.86051
O	3.82165	-2.06997	1.65821
O	6.59265	-0.335005	-1.62321
