30
  This energy is 2.3671e-05 and Call times are: 10285
C	0.452868	-0.289131	-1.27685
N	0.819201	-1.5677	-0.995547
C	0.636705	-2.04118	0.261179
C	-0.104092	0.493225	-0.243371
C	-0.237755	-0.120576	1.01297
N	0.116502	-1.38606	1.32156
H	0.945369	-3.06489	0.4308
N	0.637352	0.179395	-2.53455
H	1.04038	-0.431937	-3.22552
H	0.376327	1.12143	-2.774
N	-0.572124	1.81173	-0.206491
C	-0.977832	1.98593	1.04408
N	-0.798906	0.84842	1.82685
H	-1.40212	2.89441	1.4383
H	-1.02713	0.731333	2.80091
C	18.9162	2.21132	1.50938
C	18.6285	0.940546	0.76254
H	18.0954	2.45709	2.19294
H	19.0086	3.0577	0.819091
H	19.8407	2.13259	2.08944
C	17.4194	0.891161	-0.0633416
C	19.422	-0.159011	0.810019
N	19.1275	-1.31864	0.107587
H	20.3297	-0.191134	1.39996
N	17.2078	-0.329232	-0.737529
C	18.0051	-1.46709	-0.704193
H	16.3775	-0.385353	-1.31451
H	19.7337	-2.1238	0.158969
O	17.7531	-2.5123	-1.32865
O	16.608	1.82997	-0.19305
