30
  This energy is -0.000221891 and Call times are: 2084
C	0.138711	1.10902	-0.818451
N	-0.871539	1.81645	-0.246604
C	-1.56135	1.26242	0.780068
C	0.426655	-0.177423	-0.315946
C	-0.365469	-0.631688	0.751389
N	-1.37364	0.0471456	1.33871
H	-2.355	1.86821	1.19861
N	0.825173	1.66726	-1.84437
H	0.568239	2.58994	-2.15459
H	1.57833	1.16882	-2.28846
N	1.3789	-1.13844	-0.674472
C	1.1635	-2.14737	0.158925
N	0.118852	-1.89499	1.04418
H	1.7186	-3.07064	0.17265
H	-0.233413	-2.50161	1.76704
C	5.23143	-2.62287	-0.447809
C	5.66019	-1.18496	-0.384495
H	4.4179	-2.81945	0.259949
H	6.05511	-3.28884	-0.165964
H	4.89237	-2.89424	-1.45212
C	6.14224	-0.670707	0.899858
C	5.62595	-0.339736	-1.44532
N	6.02931	0.984543	-1.35347
H	5.28117	-0.65355	-2.42293
N	6.52885	0.685445	0.891454
C	6.50264	1.56921	-0.180854
H	6.86556	1.06182	1.76917
H	5.99457	1.59389	-2.15711
O	6.86123	2.75775	-0.112409
O	6.22359	-1.34111	1.94891
