30
  This energy is -3.6584e-05 and Call times are: 9889
C	0.812968	-0.682725	-0.889944
N	1.13387	-1.68329	-0.0274156
C	0.616093	-1.66135	1.22489
C	-0.0493049	0.340061	-0.441886
C	-0.514598	0.24155	0.879787
N	-0.213642	-0.738508	1.75791
H	0.903747	-2.48141	1.87048
N	1.33313	-0.709247	-2.14058
H	1.94251	-1.46875	-2.39632
H	1.11447	0.0170007	-2.80214
N	-0.560828	1.48322	-1.0667
C	-1.31647	2.05845	-0.140959
N	-1.3251	1.3496	1.05742
H	-1.87263	2.9717	-0.272957
H	-1.8195	1.58089	1.90398
C	15.9826	1.60172	1.40206
C	17.0359	0.708459	0.812194
H	14.9789	1.2189	1.18406
H	16.0328	2.60589	0.965581
H	16.0943	1.68774	2.48712
C	17.0181	0.494265	-0.637013
C	17.9983	0.0916508	1.54317
N	18.9577	-0.728377	0.967115
H	18.0696	0.206113	2.61782
N	18.0329	-0.353905	-1.12648
C	19.0276	-0.995775	-0.398357
H	18.0395	-0.515793	-2.12606
H	19.6637	-1.17626	1.53221
O	19.8932	-1.73278	-0.901735
O	16.19	1.00088	-1.42062
