44
  This energy is -2.837 and Call times are: 152633
C	0.657825	1.25618	-3.17836
C	0.568348	1.41044	-1.70889
O	1.01614	2.40103	-1.14799
H	1.183	2.13641	-3.60877
H	-0.359258	1.19355	-3.61923
H	1.22792	0.337819	-3.43272
N	-0.0207621	0.414862	-1.04245
C	-0.143722	0.402009	0.393962
C	-0.172285	-1.04358	0.853309
O	-0.260926	-1.96125	0.0398328
H	-0.343692	-0.403753	-1.50877
H	0.733292	0.862294	0.831701
C	-1.42406	1.13878	0.844682
H	-2.32482	0.660513	0.404323
H	-1.52298	1.1478	1.94951
H	-1.38512	2.19219	0.490882
N	-0.0887224	-1.28075	2.17724
C	-0.102596	-2.62445	2.70682
H	-0.0134379	-0.525286	2.81965
H	-0.0241778	-2.61072	3.81627
H	0.751301	-3.21486	2.3024
H	-1.04626	-3.14699	2.42825
C	4.53468	-3.45745	0.159126
C	5.3695	-2.23588	0.11438
O	6.57146	-2.2821	0.337062
H	5.17128	-4.32764	0.429997
H	4.07531	-3.64364	-0.834383
H	3.73461	-3.34647	0.921128
N	4.73844	-1.09618	-0.177541
C	5.40851	0.179785	-0.215791
C	4.3975	1.25561	0.133517
O	3.20094	0.988819	0.22721
H	3.7526	-1.0682	-0.316078
H	6.17876	0.201722	0.545041
C	6.01756	0.441484	-1.61072
H	5.22627	0.429544	-2.39031
H	6.54824	1.41485	-1.64895
H	6.74832	-0.362057	-1.84873
N	4.86005	2.50375	0.343815
C	3.97296	3.59091	0.686323
H	5.83217	2.69927	0.26744
H	4.54303	4.53678	0.818931
H	3.43156	3.37206	1.63515
H	3.21526	3.7474	-0.115275
