108
  This energy is -4.8926 and Call times are: 198
C	0.542474	4.68718	6.57679
C	0.777587	4.88588	5.09053
C	1.76605	3.86902	4.49912
C	1.98665	4.09128	2.99517
C	2.95926	3.08456	2.43211
C	2.64262	1.88518	1.91746
C	1.25268	1.31217	1.8027
C	0.623074	1.69109	0.486655
C	0.701225	0.990784	-0.656873
C	1.43316	-0.312897	-0.853719
C	0.523324	-1.48096	-0.56861
C	-0.265049	-2.11688	-1.4508
C	-0.410531	-1.79981	-2.91758
C	0.590187	-2.58001	-3.73185
C	0.395125	-3.79887	-4.26122
C	-0.862218	-4.6241	-4.14435
C	-1.82927	-4.32542	-5.29947
C	-3.11748	-5.15742	-5.19773
C	-4.08666	-4.86017	-6.35262
C	-5.37081	-5.6931	-6.24645
O	-0.328297	5.59549	7.05951
O	1.0451	3.84179	7.27886
H	-0.19664	4.79755	4.55483
H	1.17204	5.91519	4.92075
H	2.74324	3.95081	5.0319
H	1.37819	2.83613	4.66694
H	1.01374	4.01665	2.45688
H	2.36883	5.12319	2.81917
H	4.02351	3.37701	2.45312
H	3.4634	1.25008	1.54031
H	1.29245	0.203867	1.89677
H	0.622114	1.68053	2.64262
H	0.0478291	2.63344	0.47685
H	0.185732	1.39541	-1.54558
H	2.32365	-0.353238	-0.187764
H	1.8205	-0.377981	-1.89479
H	0.515914	-1.83784	0.476407
H	-0.874985	-2.95965	-1.08039
H	-0.269717	-0.708826	-3.08629
H	-1.44367	-2.03658	-3.25687
H	1.56679	-2.09316	-3.89998
H	1.21904	-4.25437	-4.83784
H	-1.36147	-4.41628	-3.17019
H	-0.603757	-5.70789	-4.1385
H	-1.3243	-4.54223	-6.27044
H	-2.08813	-3.24018	-5.29431
H	-3.62199	-4.94049	-4.22654
H	-2.85814	-6.24255	-5.2027
H	-3.583	-5.07723	-7.32478
H	-4.34707	-3.77478	-6.34834
H	-6.06441	-5.46794	-7.08953
H	-5.90817	-5.48321	-5.29299
H	-5.14497	-6.78416	-6.26831
H	-0.436283	5.41701	8.00856
C	7.19817	-7.1046	2.96372
C	6.51822	-5.89454	2.3496
C	6.87602	-4.58073	3.06143
C	6.17582	-3.37237	2.4215
C	6.5386	-2.09222	3.1329
C	7.5728	-1.28964	2.83299
C	8.57229	-1.51284	1.72635
C	8.10815	-0.867201	0.445859
C	8.37669	0.388589	0.0520813
C	9.195	1.40319	0.810391
C	10.6497	1.30662	0.425722
C	11.2624	1.9734	-0.566313
C	10.6275	2.96305	-1.51004
C	10.7095	4.36018	-0.949275
C	11.7108	5.23217	-1.15184
C	12.9474	4.98379	-1.97924
C	12.7268	5.3975	-3.44172
C	13.9769	5.15177	-4.30136
C	13.7584	5.56504	-5.76523
C	15.0089	5.31778	-6.61902
O	6.86122	-8.23645	2.31437
O	7.95027	-7.10544	3.90955
H	6.81501	-5.81782	1.27725
H	5.41324	-6.0399	2.3917
H	6.58306	-4.65109	4.13599
H	7.98112	-4.4296	3.02449
H	6.4593	-3.29891	1.34627
H	5.07144	-3.51878	2.44966
H	5.88369	-1.80451	3.97368
H	7.71712	-0.380564	3.44292
H	9.56149	-1.09689	2.02173
H	8.72077	-2.60424	1.56644
H	7.49158	-1.49643	-0.219688
H	7.9662	0.724202	-0.91648
H	9.07986	1.24267	1.90541
H	8.8147	2.4285	0.604945
H	11.2597	0.61288	1.03083
H	12.3405	1.78952	-0.71961
H	9.56438	2.68782	-1.69045
H	11.1325	2.92105	-2.50088
H	9.86336	4.68175	-0.317107
H	11.6397	6.2265	-0.677439
H	13.2254	3.90599	-1.92921
H	13.8076	5.54887	-1.55229
H	12.4555	6.47889	-3.4836
H	11.8686	4.82274	-3.86356
H	14.248	4.07034	-4.25901
H	14.8348	5.72652	-3.87905
H	13.4874	6.64698	-5.80877
H	12.9004	4.99031	-6.18885
H	14.837	5.62159	-7.67764
H	15.2937	4.24041	-6.61187
H	15.8801	5.89517	-6.23223
H	7.325	-8.96993	2.75154
