108
  This energy is -6.1703 and Call times are: 1165
C	6.9827	0.237801	4.08699
C	6.16777	-0.849037	3.40994
C	4.71539	-0.906998	3.90803
C	3.91259	-2.01402	3.20808
C	2.4901	-2.056	3.70933
C	1.45301	-1.37452	3.19585
C	1.50966	-0.434796	2.01807
C	1.25505	-1.17381	0.729278
C	0.0567996	-1.37025	0.155005
C	-1.27224	-0.891892	0.68311
C	-1.59266	0.481286	0.149092
C	-2.25966	0.766107	-0.981472
C	-2.83235	-0.22643	-1.96129
C	-4.25	-0.58161	-1.59079
C	-5.35631	0.052123	-2.01314
C	-5.39602	1.24182	-2.93976
C	-5.48462	0.797336	-4.40716
C	-5.52615	1.99659	-5.36743
C	-5.61482	1.55416	-6.83639
C	-5.65599	2.75481	-7.79076
O	8.24879	0.258346	3.62558
O	6.59405	1.00802	4.93312
H	6.16619	-0.667975	2.30944
H	6.65405	-1.83532	3.59613
H	4.70946	-1.08646	5.00949
H	4.22289	0.0778039	3.7262
H	3.9188	-1.84455	2.10666
H	4.40182	-3.00031	3.38058
H	2.30302	-2.71156	4.57757
H	0.46326	-1.50374	3.66804
H	0.755939	0.374363	2.14433
H	2.50535	0.0609733	1.97843
H	2.14475	-1.58604	0.221803
H	0.0260263	-1.93369	-0.794125
H	-1.25464	-0.872618	1.7955
H	-2.07477	-1.60771	0.397382
H	-1.23575	1.32815	0.761402
H	-2.41264	1.83034	-1.23344
H	-2.2039	-1.14465	-1.98317
H	-2.80299	0.1956	-2.99065
H	-4.3746	-1.4422	-0.910436
H	-6.33506	-0.317244	-1.66038
H	-4.48737	1.86876	-2.78899
H	-6.26763	1.88842	-2.68746
H	-6.40005	0.17599	-4.5511
H	-4.6054	0.156171	-4.65346
H	-4.61069	2.61776	-5.223
H	-6.40536	2.63758	-5.12064
H	-6.53062	0.932879	-6.98208
H	-4.73541	0.913055	-7.08446
H	-5.72021	2.42008	-8.85207
H	-4.74329	3.38511	-7.6831
H	-6.53643	3.40492	-7.58083
H	8.71603	0.969979	4.09405
C	9.727	5.07984	4.80534
C	8.82396	5.23363	3.59514
C	9.28948	4.40109	2.39057
C	8.35973	4.574	1.17996
C	8.832	3.74989	0.00765836
C	8.47478	2.48331	-0.260344
C	7.53181	1.63914	0.559201
C	6.11108	1.80696	0.0845259
C	5.50134	1.07024	-0.858684
C	6.11431	-0.0707608	-1.63098
C	5.89241	-1.37784	-0.91281
C	4.84817	-2.20884	-1.06505
C	3.67166	-2.01395	-1.98755
C	3.94777	-2.62564	-3.33764
C	3.66863	-3.88792	-3.70187
C	3.02497	-4.93877	-2.83182
C	1.49539	-4.90721	-2.96621
C	0.820978	-5.97172	-2.08641
C	-0.709676	-5.94197	-2.21931
C	-1.37802	-7.00632	-1.33922
O	9.28807	5.82325	5.84022
O	10.7192	4.39432	4.8812
H	7.78986	4.92163	3.87301
H	8.79213	6.30908	3.30142
H	10.3248	4.70712	2.10794
H	9.3252	3.32334	2.67801
H	7.32225	4.2755	1.45638
H	8.31457	5.64919	0.890471
H	9.53452	4.24922	-0.68208
H	8.9019	2.00341	-1.1584
H	7.82825	0.568473	0.491715
H	7.60706	1.92325	1.6327
H	5.53038	2.61357	0.565343
H	4.45167	1.31106	-1.10254
H	7.20398	0.106357	-1.7701
H	5.67442	-0.118491	-2.65192
H	6.67728	-1.66695	-0.191782
H	4.83467	-3.13296	-0.460641
H	3.4525	-0.928626	-2.09977
H	2.75994	-2.47133	-1.54244
H	4.42238	-1.96475	-4.08396
H	3.92667	-4.20325	-4.72793
H	3.31428	-4.77765	-1.76796
H	3.40815	-5.94708	-3.11096
H	1.21393	-5.07579	-4.03258
H	1.1193	-3.89691	-2.67873
H	1.10288	-5.80291	-1.02019
H	1.19751	-6.98181	-2.37406
H	-0.992824	-6.11113	-3.28566
H	-1.08748	-4.93188	-1.93139
H	-2.48721	-6.97385	-1.44503
H	-1.13001	-6.85198	-0.263786
H	-1.03546	-8.02987	-1.61649
H	9.90356	5.68297	6.57894
