108
  This energy is 0.1058 and Call times are: 3783
C	2.16821	-3.84668	-6.7838
C	2.8718	-3.45107	-5.49844
C	2.75601	-1.95041	-5.18947
C	3.47563	-1.57608	-3.88489
C	3.35145	-0.100042	-3.59787
C	2.3718	0.485629	-2.89011
C	1.2055	-0.219256	-2.24487
C	1.54305	-0.636046	-0.836217
C	1.34953	0.0974804	0.272239
C	0.756763	1.48288	0.330278
C	-0.740445	1.41335	0.494576
C	-1.41903	1.3817	1.65333
C	-0.829765	1.40889	3.04084
C	-0.68745	2.82785	3.53017
C	-1.61357	3.52219	4.21143
C	-2.97553	3.01802	4.61943
C	-2.92751	2.35277	6.00284
C	-4.30707	1.83221	6.43632
C	-4.26139	1.16611	7.82039
C	-5.64077	0.64825	8.24843
O	2.291	-5.16756	-7.02152
O	1.56445	-3.11244	-7.52985
H	2.43261	-4.02991	-4.6523
H	3.95072	-3.72218	-5.57801
H	3.1924	-1.36474	-6.03328
H	1.67831	-1.67166	-5.11002
H	3.04879	-2.16148	-3.03814
H	4.55183	-1.85681	-3.95466
H	4.14674	0.541806	-4.01517
H	2.41025	1.58151	-2.76041
H	0.316797	0.450764	-2.23745
H	0.925291	-1.11308	-2.84597
H	1.98984	-1.63903	-0.720288
H	1.64782	-0.342274	1.24018
H	1.01192	2.04465	-0.595686
H	1.20566	2.05343	1.17353
H	-1.32396	1.38638	-0.442581
H	-2.52096	1.33055	1.60211
H	0.162612	0.905172	3.04214
H	-1.47418	0.829099	3.73877
H	0.269405	3.32861	3.30058
H	-1.37396	4.55813	4.50846
H	-3.3515	2.29108	3.86336
H	-3.70303	3.86185	4.63092
H	-2.55655	3.08875	6.75483
H	-2.20218	1.50529	5.98108
H	-4.67774	1.09645	5.68396
H	-5.03211	2.67993	6.45773
H	-3.89099	1.90151	8.57398
H	-3.53651	0.317556	7.79998
H	-5.59349	0.167855	9.25319
H	-6.02959	-0.104679	7.52469
H	-6.38366	1.47745	8.29779
H	1.82309	-5.35692	-7.85182
C	-3.27527	-2.46857	-2.54846
C	-2.56398	-2.41729	-1.20862
C	-1.20108	-3.12653	-1.22631
C	-0.50222	-3.06052	0.140127
C	0.833383	-3.76147	0.103885
C	2.01182	-3.19668	-0.205874
C	2.22826	-1.75156	-0.577675
C	2.50927	-0.918771	0.646847
C	3.72018	-0.671474	1.17289
C	5.03958	-1.17628	0.645237
C	5.62071	-0.203671	-0.349644
C	6.44391	0.822884	-0.0800127
C	6.96496	1.22455	1.27658
C	8.26298	0.519106	1.57764
C	9.49212	0.971393	1.28005
C	9.8132	2.2723	0.587143
C	9.99535	3.40977	1.60285
C	10.3234	4.7446	0.91532
C	10.5061	5.88427	1.92982
C	10.8333	7.21437	1.23856
O	-4.46489	-1.83752	-2.49466
O	-2.87075	-2.99316	-3.5591
H	-2.41344	-1.35077	-0.919177
H	-3.21117	-2.89575	-0.43654
H	-1.34412	-4.1945	-1.5169
H	-0.548491	-2.6536	-1.99827
H	-0.360972	-1.99649	0.43974
H	-1.15079	-3.52613	0.917588
H	0.822199	-4.83572	0.357763
H	2.91237	-3.83547	-0.1913
H	3.07687	-1.66899	-1.29308
H	1.32939	-1.35843	-1.10327
H	1.62915	-0.477893	1.14689
H	3.77027	-0.0402869	2.07752
H	4.90222	-2.17192	0.167814
H	5.75146	-1.33056	1.48639
H	5.33027	-0.365457	-1.40271
H	6.78274	1.44572	-0.926624
H	6.2114	0.984213	2.05947
H	7.11364	2.32679	1.31541
H	8.18023	-0.455947	2.08897
H	10.3588	0.347676	1.56048
H	8.99858	2.53083	-0.127708
H	10.7391	2.15761	-0.0218899
H	10.8167	3.14619	2.31045
H	9.06208	3.52242	2.20378
H	9.5019	5.00768	0.207675
H	11.2565	4.63144	0.314349
H	11.328	5.62223	2.63811
H	9.57283	5.99859	2.5314
H	10.9632	8.0318	1.98521
H	10.02	7.51386	0.538038
H	11.7731	7.13794	0.64462
H	-4.86822	-1.90463	-3.37614
