108
  This energy is -3.1687 and Call times are: 3564
C	-0.316267	6.26661	5.11347
C	-0.781593	4.82237	5.15012
C	-1.68056	4.45218	3.96032
C	-2.13762	2.98679	4.02071
C	-3.01864	2.64155	2.84551
C	-2.60195	2.16417	1.66139
C	-1.1718	1.88064	1.27703
C	-0.793549	0.463639	1.62485
C	-0.924451	-0.607648	0.82523
C	-1.4751	-0.608232	-0.578639
C	-0.371523	-0.387045	-1.58196
C	0.372705	-1.33394	-2.17668
C	0.265206	-2.82343	-1.96927
C	-0.711689	-3.427	-2.94628
C	-0.41319	-3.89951	-4.16757
C	0.95656	-3.91838	-4.79924
C	1.6994	-5.22175	-4.47049
C	3.09829	-5.25971	-5.10589
C	3.84347	-6.56309	-4.77822
C	5.23913	-6.59602	-5.41472
O	0.468512	6.55416	6.1707
O	-0.585956	7.08908	4.27024
H	0.111366	4.15415	5.15095
H	-1.34396	4.64706	6.09717
H	-2.57586	5.11839	3.95239
H	-1.12438	4.62678	3.00867
H	-1.24834	2.31532	4.03464
H	-2.68922	2.80334	4.97148
H	-4.10123	2.80214	2.98973
H	-3.36367	1.95565	0.889672
H	-1.03338	2.05117	0.185912
H	-0.492748	2.59143	1.79899
H	-0.371349	0.307104	2.63296
H	-0.60263	-1.58764	1.21931
H	-2.24897	0.184345	-0.683791
H	-1.98878	-1.57343	-0.785115
H	-0.166761	0.666059	-1.84373
H	1.14618	-1.00491	-2.89289
H	-0.0577977	-3.03953	-0.926434
H	1.26504	-3.29703	-2.09004
H	-1.76345	-3.4787	-2.61437
H	-1.23222	-4.31601	-4.77956
H	1.54941	-3.04514	-4.44226
H	0.864985	-3.80385	-5.90375
H	1.10274	-6.0904	-4.83684
H	1.79269	-5.32556	-3.36355
H	3.69452	-4.39079	-4.73944
H	3.00456	-5.15565	-6.21276
H	3.24795	-7.4331	-5.14476
H	3.93812	-6.66801	-3.671
H	5.76828	-7.54595	-5.16938
H	5.86611	-5.74904	-5.05224
H	5.17674	-6.51323	-6.52429
H	0.732029	7.48601	6.09058
C	12.7827	0.306874	7.4144
C	13.1544	-0.363916	6.10458
C	12.0254	-1.23861	5.53793
C	12.4262	-1.90562	4.2134
C	11.3063	-2.75979	3.67231
C	10.3336	-2.35062	2.84157
C	10.1724	-0.957229	2.28845
C	10.9144	-0.808249	0.984894
C	10.4161	-1.04763	-0.239266
C	9.01678	-1.51268	-0.555124
C	8.09803	-0.334015	-0.755413
C	7.84536	0.297592	-1.91361
C	8.42625	-0.0358699	-3.26436
C	7.55571	-1.0333	-3.98579
C	6.53503	-0.738084	-4.80736
C	6.06113	0.647862	-5.16811
C	6.78887	1.17454	-6.41378
C	6.31912	2.58671	-6.79738
C	7.04604	3.11575	-8.04364
C	6.57362	4.52553	-8.42234
O	13.7955	1.06426	7.88017
O	11.7315	0.206956	8.00196
H	13.4142	0.421441	5.35651
H	14.0575	-0.998131	6.26604
H	11.7591	-2.02617	6.28244
H	11.1175	-0.610347	5.37531
H	12.6991	-1.1251	3.46627
H	13.336	-2.53059	4.36677
H	11.3016	-3.81412	3.99937
H	9.57637	-3.08986	2.52635
H	9.09271	-0.734413	2.13571
H	10.55	-0.21291	3.02478
H	11.963	-0.470558	1.05867
H	11.0822	-0.893736	-1.10633
H	8.6352	-2.15652	0.268267
H	9.02446	-2.14822	-1.46844
H	7.58878	0.0354242	0.152141
H	7.14318	1.14961	-1.89156
H	9.45438	-0.444918	-3.14536
H	8.52806	0.890078	-3.87329
H	7.78997	-2.09846	-3.81376
H	5.98052	-1.57303	-5.27019
H	6.22954	1.33982	-4.31122
H	4.96183	0.63613	-5.34937
H	6.60989	0.479992	-7.26839
H	7.88784	1.18937	-6.22185
H	6.49808	3.28086	-5.94244
H	5.22011	2.57147	-6.98899
H	6.86736	2.42216	-8.89973
H	8.1457	3.13176	-7.85286
H	7.10838	4.89696	-9.32712
H	6.7574	5.24711	-7.59322
H	5.48053	4.53833	-8.63888
H	13.4981	1.46397	8.71441
