108
  This energy is -4.4984 and Call times are: 674
C	6.27897	-4.82226	-1.68478
C	4.77658	-5.00888	-1.57649
C	4.20941	-4.53414	-0.229729
C	2.68855	-4.7336	-0.145377
C	2.14964	-4.26228	1.18275
C	1.71482	-3.02265	1.46184
C	1.68107	-1.8611	0.501047
C	0.368469	-1.81444	-0.238457
C	-0.735753	-1.1576	0.153252
C	-0.88411	-0.336288	1.40924
C	-0.502033	1.0996	1.15293
C	-1.31894	2.08671	0.749859
C	-2.79532	1.97199	0.466482
C	-3.59863	2.24703	1.71236
C	-4.05128	3.44808	2.10794
C	-3.84431	4.75489	1.38337
C	-4.98005	5.01913	0.383894
C	-4.78671	6.3473	-0.364856
C	-5.92207	6.61378	-1.36555
C	-5.72441	7.94059	-2.11026
O	6.73972	-5.24899	-2.87721
O	7.00968	-4.35762	-0.841923
H	4.28098	-4.44095	-2.39851
H	4.53536	-6.08954	-1.71025
H	4.70237	-5.09751	0.597957
H	4.44865	-3.45327	-0.0884928
H	2.18954	-4.17819	-0.972658
H	2.4414	-5.81042	-0.291218
H	2.11703	-5.0182	1.98656
H	1.34575	-2.82054	2.48272
H	1.83608	-0.908379	1.05518
H	2.52032	-1.94733	-0.224889
H	0.325557	-2.37651	-1.18781
H	-1.62738	-1.21513	-0.495556
H	-0.248363	-0.760288	2.21804
H	-1.93271	-0.390745	1.77743
H	0.561078	1.34868	1.31796
H	-0.880551	3.09012	0.60677
H	-3.03011	0.955218	0.0797192
H	-3.08451	2.68534	-0.337288
H	-3.82788	1.37306	2.34692
H	-4.62963	3.50352	3.04669
H	-2.86662	4.7401	0.84919
H	-3.78633	5.58978	2.11892
H	-5.95424	5.03896	0.927344
H	-5.02711	4.18242	-0.352645
H	-3.81233	6.32713	-0.907962
H	-4.73948	7.18369	0.372046
H	-6.8974	6.63453	-0.823142
H	-5.96997	5.77772	-2.10353
H	-6.55418	8.12143	-2.8323
H	-4.76618	7.94313	-2.67918
H	-5.69253	8.79895	-1.40027
H	7.7005	-5.10397	-2.88496
C	13.2128	2.13391	-6.33606
C	13.4077	2.10091	-4.83119
C	12.3228	2.87771	-4.06935
C	12.5425	2.82904	-2.54973
C	11.4687	3.59643	-1.81867
C	10.3031	3.09547	-1.37821
C	9.84168	1.66796	-1.52923
C	10.2821	0.834445	-0.353126
C	9.58962	0.641306	0.781473
C	8.23479	1.2184	1.10626
C	7.13857	0.28914	0.649923
C	6.5753	-0.698303	1.36537
C	6.91779	-1.09097	2.78018
C	6.07014	-0.325351	3.76429
C	4.87575	-0.711583	4.24196
C	4.15019	-1.98565	3.88718
C	4.53537	-3.12568	4.84147
C	3.80562	-4.43334	4.49572
C	4.18955	-5.57553	5.44937
C	3.45851	-6.87846	5.10004
O	14.1814	1.44341	-6.96955
O	12.3235	2.6912	-6.93513
H	13.4013	1.0396	-4.48843
H	14.4047	2.53627	-4.58559
H	12.3225	3.94086	-4.40873
H	11.3217	2.44815	-4.31183
H	12.5497	1.76961	-2.20411
H	13.5432	3.25143	-2.3003
H	11.6768	4.66538	-1.63805
H	9.60965	3.77833	-0.856557
H	8.73275	1.63731	-1.61929
H	10.2496	1.23715	-2.47093
H	11.2666	0.343562	-0.447182
H	10.0424	0.00171176	1.5594
H	8.11814	2.21203	0.619241
H	8.1503	1.39719	2.20125
H	6.77267	0.44985	-0.379526
H	5.77904	-1.29232	0.883097
H	7.9961	-0.898882	2.97738
H	6.76601	-2.18479	2.91827
H	6.48085	0.637601	4.11513
H	4.36317	-0.0489277	4.96096
H	4.3864	-2.27535	2.83755
H	3.0495	-1.8168	3.92497
H	4.28972	-2.8305	5.88899
H	5.63741	-3.29275	4.7928
H	4.05137	-4.72803	3.44807
H	2.70365	-4.26577	4.54429
H	3.94376	-5.28187	6.49783
H	5.29188	-5.74426	5.40129
H	3.74583	-7.698	5.79886
H	3.69999	-7.20918	4.0636
H	2.35342	-6.74732	5.15887
H	14.0022	1.50168	-7.9228
