108
  This energy is -5.5728 and Call times are: 2039
C	-0.270654	8.06574	0.623383
C	-0.425558	6.90528	1.58932
C	-1.49721	5.8968	1.14732
C	-1.63442	4.73311	2.14074
C	-2.69028	3.75372	1.69082
C	-2.48893	2.68327	0.905174
C	-1.16755	2.25277	0.320273
C	-0.450225	1.30959	1.25184
C	-0.561765	-0.0289425	1.26033
C	-1.42542	-0.855776	0.341357
C	-0.661927	-1.2417	-0.900258
C	0.0842722	-2.34531	-1.07177
C	0.319705	-3.43722	-0.0591133
C	-0.729445	-4.51283	-0.183615
C	-0.650417	-5.60293	-0.964231
C	0.502532	-5.96323	-1.86781
C	1.53998	-6.81908	-1.12626
C	2.72341	-7.1966	-2.03127
C	3.76281	-8.05305	-1.29128
C	4.94194	-8.42717	-2.1989
O	0.676245	8.92796	1.04322
O	-0.890107	8.23902	-0.399596
H	0.552608	6.37736	1.68093
H	-0.696944	7.30472	2.59465
H	-2.47894	6.41892	1.05204
H	-1.23269	5.49401	0.140723
H	-0.655945	4.21012	2.24544
H	-1.8931	5.12828	3.1501
H	-3.71566	3.95025	2.04937
H	-3.35996	2.05187	0.656385
H	-1.33326	1.75853	-0.66311
H	-0.532559	3.14571	0.124802
H	0.225706	1.77619	1.9897
H	0.0288049	-0.590874	2.00512
H	-2.33962	-0.285521	0.063615
H	-1.77764	-1.76914	0.870327
H	-0.733859	-0.534576	-1.74541
H	0.582664	-2.4819	-2.04769
H	0.306993	-3.01119	0.968938
H	1.33247	-3.87592	-0.201883
H	-1.63907	-4.3791	0.427726
H	-1.49711	-6.31136	-0.957036
H	0.984243	-5.0357	-2.25393
H	0.12571	-6.5146	-2.75968
H	1.05148	-7.74841	-0.748763
H	1.91695	-6.25756	-0.238924
H	3.21147	-6.26701	-2.40871
H	2.34598	-7.75789	-2.91856
H	3.27562	-8.98356	-0.91353
H	4.14136	-7.49224	-0.403532
H	5.6878	-9.0478	-1.6502
H	5.46251	-7.51721	-2.57688
H	4.59777	-9.00681	-3.08629
H	0.727592	9.64322	0.387504
C	-2.10716	4.14423	-5.20745
C	-1.09375	3.0204	-5.32466
C	0.261327	3.36684	-4.68861
C	1.26837	2.21428	-4.82042
C	2.59203	2.57207	-4.19081
C	2.94214	2.35219	-2.91303
C	2.07938	1.70465	-1.85956
C	2.28373	0.211371	-1.84211
C	3.1898	-0.45319	-1.10619
C	4.18294	0.159803	-0.151214
C	3.59565	0.259668	1.23391
C	3.66518	-0.668012	2.20281
C	4.34593	-2.01037	2.11449
C	5.78549	-1.906	2.55032
C	6.24248	-2.06833	3.80281
C	5.40516	-2.38647	5.01659
C	5.27405	-3.90362	5.21597
C	4.42359	-4.24795	6.44893
C	4.29105	-5.76561	6.65039
C	3.44131	-6.10401	7.88226
O	-3.28124	3.80474	-5.77541
O	-1.93314	5.21934	-4.68392
H	-1.50418	2.10956	-4.82886
H	-0.937651	2.78466	-6.40353
H	0.67733	4.27884	-5.17917
H	0.112297	3.60553	-3.60866
H	0.857198	1.29799	-4.33749
H	1.41811	1.96638	-5.89653
H	3.32744	3.05797	-4.85538
H	3.94947	2.66864	-2.58993
H	2.32098	2.1303	-0.859949
H	1.00834	1.93671	-2.05396
H	1.62045	-0.37738	-2.49973
H	3.22255	-1.55303	-1.19854
H	4.48279	1.16924	-0.51069
H	5.11314	-0.450298	-0.126657
H	3.05678	1.19697	1.45878
H	3.17964	-0.44005	3.16809
H	4.29155	-2.39614	1.07201
H	3.80958	-2.75089	2.74893
H	6.51878	-1.67486	1.75792
H	7.32718	-1.96305	3.97936
H	4.3942	-1.93077	4.90829
H	5.86127	-1.92433	5.92204
H	6.28969	-4.3511	5.33013
H	4.81076	-4.35759	4.3082
H	3.40816	-3.8001	6.33446
H	4.88711	-3.79361	7.35641
H	5.30644	-6.21466	6.76539
H	3.82706	-6.22115	5.74314
H	3.35329	-7.20707	8.01666
H	2.41282	-5.68539	7.78823
H	3.8905	-5.67891	8.8093
H	-3.88352	4.55973	-5.66841
