108
  This energy is -3.1159 and Call times are: 1997
C	3.86401	-7.09911	0.436093
C	2.42184	-6.64763	0.577599
C	2.2415	-5.53772	1.62469
C	0.774547	-5.09887	1.74872
C	0.616714	-4.0094	2.78052
C	0.694101	-2.68854	2.55029
C	0.953915	-2.0383	1.21494
C	-0.33908	-1.76956	0.488379
C	-1.07464	-0.648893	0.573535
C	-0.755444	0.563508	1.41155
C	0.0782983	1.5458	0.628323
C	-0.376332	2.54847	-0.141193
C	-1.81945	2.90846	-0.388112
C	-2.30268	3.9015	0.638301
C	-2.24049	5.23878	0.53003
C	-1.6755	6.00717	-0.638701
C	-2.76078	6.29899	-1.68546
C	-2.20388	7.08192	-2.88502
C	-3.28816	7.37504	-3.93376
C	-2.72724	8.15665	-5.12898
O	3.98308	-8.07153	-0.489385
O	4.81512	-6.67444	1.04869
H	2.06018	-6.27609	-0.40985
H	1.79492	-7.52356	0.866763
H	2.60308	-5.90231	2.61555
H	2.86764	-4.65814	1.34231
H	0.404581	-4.7386	0.761185
H	0.141951	-5.97369	2.02513
H	0.42027	-4.34676	3.81308
H	0.557255	-2.00445	3.40617
H	1.50979	-1.0852	1.36111
H	1.60524	-2.69498	0.595806
H	-0.702736	-2.57714	-0.170864
H	-2.00383	-0.595586	-0.0206177
H	-0.214408	0.256291	2.33404
H	-1.69702	1.04971	1.75088
H	1.17195	1.4139	0.705838
H	0.369458	3.18292	-0.651824
H	-2.45035	1.99219	-0.356809
H	-1.93584	3.33188	-1.41071
H	-2.74511	3.47678	1.5564
H	-2.63398	5.84773	1.36259
H	-0.845769	5.42855	-1.1058
H	-1.22801	6.96307	-0.281695
H	-3.58427	6.88396	-1.2117
H	-3.19894	5.33703	-2.04246
H	-1.38029	6.49671	-3.35833
H	-1.76563	8.04366	-2.52756
H	-4.11251	7.96084	-3.46133
H	-3.72706	6.41344	-4.29235
H	-3.52344	8.36244	-5.88148
H	-1.9138	7.58748	-5.63519
H	-2.2988	9.1331	-4.80513
H	4.92251	-8.31601	-0.533083
C	4.66433	4.46825	6.72799
C	3.75131	4.18236	5.54969
C	4.40954	4.48451	4.1946
C	3.4659	4.18717	3.01942
C	4.12855	4.48948	1.69807
C	4.85116	3.62825	0.963382
C	5.14025	2.19135	1.31724
C	4.0754	1.27825	0.765625
C	4.08825	0.68864	-0.441184
C	5.16853	0.821353	-1.48495
C	6.2182	-0.245389	-1.30134
C	6.22463	-1.46783	-1.85792
C	5.18293	-2.03765	-2.78708
C	5.52602	-1.73031	-4.2227
C	6.26975	-2.49799	-5.03599
C	6.90622	-3.81628	-4.67185
C	5.95898	-4.98835	-4.96791
C	6.59031	-6.34129	-4.60316
C	5.64418	-7.51561	-4.89859
C	6.27899	-8.86367	-4.53279
O	4.05406	4.19191	7.89739
O	5.79614	4.88852	6.67685
H	3.45237	3.10818	5.57554
H	2.82767	4.79952	5.64921
H	4.71283	5.55802	4.16238
H	5.33587	3.87116	4.0889
H	3.1541	3.11766	3.04825
H	2.5356	4.79221	3.1212
H	3.9971	5.51661	1.31555
H	5.2786	3.99049	0.011892
H	6.13539	1.89659	0.915278
H	5.19767	2.07926	2.42309
H	3.21136	1.08546	1.42541
H	3.23364	0.0425846	-0.708575
H	5.6358	1.82925	-1.42244
H	4.72498	0.747058	-2.50272
H	7.06065	0.021186	-0.638995
H	7.07168	-2.13562	-1.62121
H	4.18203	-1.61982	-2.53777
H	5.10578	-3.13837	-2.64212
H	5.1228	-0.785939	-4.62843
H	6.44174	-2.14848	-6.06899
H	7.18264	-3.81712	-3.59249
H	7.85682	-3.94625	-5.23834
H	5.69242	-4.98432	-6.05129
H	5.01279	-4.85415	-4.39215
H	6.85691	-6.34481	-3.51978
H	7.53655	-6.47498	-5.17896
H	5.3771	-7.51323	-5.98236
H	4.69725	-7.38302	-4.32269
H	5.58276	-9.70618	-4.75189
H	6.53914	-8.90462	-3.44995
H	7.2182	-9.03468	-5.10771
H	4.68517	4.39405	8.60805
