108
  This energy is -4.6967 and Call times are: 1405
C	4.37476	6.62321	1.5851
C	3.0584	6.34484	0.882668
C	3.18657	5.30272	-0.239114
C	1.84193	5.03905	-0.93361
C	1.98693	4.01408	-2.03129
C	1.85014	2.68534	-1.89206
C	1.52493	1.96019	-0.610717
C	0.034444	1.81372	-0.440526
C	-0.713607	0.78827	-0.879913
C	-0.213725	-0.420416	-1.63042
C	0.16813	-1.52004	-0.672044
C	-0.633536	-2.49238	-0.207212
C	-2.08928	-2.69435	-0.543611
C	-2.23724	-3.58667	-1.74986
C	-2.34341	-4.92542	-1.73038
C	-2.33532	-5.79645	-0.498794
C	-3.75765	-6.00151	0.0430554
C	-3.77001	-6.88721	1.29902
C	-5.1923	-7.09375	1.84297
C	-5.19917	-7.97842	3.09652
O	4.22355	7.54038	2.56092
O	5.44368	6.11603	1.33932
H	2.31778	5.9803	1.63266
H	2.67048	7.29678	0.449967
H	3.92777	5.6605	-0.992821
H	3.576	4.3475	0.186744
H	1.09466	4.68664	-0.18576
H	1.44386	5.99006	-1.35672
H	2.22736	4.41007	-3.03328
H	1.98509	2.05384	-2.78775
H	2.00495	0.956032	-0.613109
H	1.95094	2.51463	0.255238
H	-0.475877	2.63228	0.0966616
H	-1.79915	0.819126	-0.680139
H	0.661679	-0.142627	-2.25859
H	-0.997312	-0.782974	-2.33231
H	1.21699	-1.51097	-0.326659
H	-0.197749	-3.22644	0.493304
H	-2.57468	-1.71157	-0.736143
H	-2.62201	-3.1397	0.326108
H	-2.2587	-3.08018	-2.73071
H	-2.44682	-5.45392	-2.69413
H	-1.69461	-5.33416	0.286838
H	-1.87565	-6.78313	-0.736746
H	-4.39067	-6.47056	-0.746917
H	-4.20816	-5.00988	0.284938
H	-3.13671	-6.41791	2.08863
H	-3.31922	-7.87861	1.05676
H	-5.82669	-7.56358	1.05385
H	-5.64412	-6.10245	2.08603
H	-6.23606	-8.12005	3.4804
H	-4.58913	-7.52512	3.91154
H	-4.77149	-8.98457	2.88055
H	5.09481	7.67428	2.96979
C	2.21945	-1.72036	-7.63084
C	3.16593	-2.32558	-6.61026
C	4.17251	-1.30892	-6.04986
C	5.11807	-1.94567	-5.02011
C	6.09859	-0.933457	-4.48114
C	5.91372	-0.153069	-3.40389
C	4.68944	-0.137516	-2.52391
C	4.82884	-1.12439	-1.39316
C	5.35515	-0.870494	-0.183727
C	5.91136	0.450405	0.285225
C	4.83131	1.28304	0.928409
C	4.48969	1.28795	2.22743
C	5.11285	0.461408	3.32363
C	6.26881	1.1973	3.95243
C	6.19375	2.0293	5.00412
C	4.93925	2.38934	5.76053
C	4.6982	1.41859	6.92596
C	3.42336	1.76944	7.70938
C	3.18016	0.79933	8.87608
C	1.90659	1.15382	9.65481
O	1.35283	-2.64005	-8.09928
O	2.20434	-0.572142	-8.00714
H	2.5688	-2.7462	-5.76741
H	3.72566	-3.16373	-7.08787
H	4.77276	-0.882572	-6.88854
H	3.61896	-0.46615	-5.57156
H	4.52514	-2.37883	-4.18185
H	5.67052	-2.79222	-5.48921
H	7.04886	-0.839044	-5.03491
H	6.7223	0.545259	-3.12498
H	4.53182	0.885454	-2.1147
H	3.78717	-0.381136	-3.12832
H	4.46013	-2.14597	-1.59181
H	5.39074	-1.69749	0.547073
H	6.35615	1.00176	-0.57284
H	6.74012	0.278968	1.00762
H	4.27382	1.95146	0.248785
H	3.67131	1.95989	2.54086
H	5.46056	-0.513103	2.91379
H	4.35034	0.219556	4.09735
H	7.2601	1.02731	3.49692
H	7.12501	2.50223	5.36178
H	4.06471	2.37572	5.07028
H	5.01679	3.4316	6.14671
H	5.57495	1.44309	7.61552
H	4.61518	0.378679	6.53039
H	2.54692	1.74505	7.01943
H	3.5067	2.80948	8.10457
H	4.05633	0.823218	9.56721
H	3.09626	-0.24152	8.48175
H	1.74218	0.442947	10.4975
H	1.00931	1.11896	8.99484
H	1.96827	2.18247	10.079
H	0.778121	-2.19437	-8.74371
