108
  This energy is 6.3352 and Call times are: 3869
C	-0.822444	-5.41162	5.96288
C	-1.17197	-5.37487	4.48634
C	-2.03629	-4.16303	4.10524
C	-2.37595	-4.149	2.60713
C	-3.22438	-2.95308	2.25157
C	-2.7687	-1.74957	1.86744
C	-1.31977	-1.36037	1.71706
C	-0.831192	-1.64079	0.318992
C	-0.875137	-0.789	-0.718655
C	-1.42107	0.61649	-0.693694
C	-0.336374	1.60118	-0.336907
C	0.481774	2.237	-1.19163
C	0.492177	2.10328	-2.69335
C	-0.43178	3.11444	-3.32344
C	-0.094226	4.35556	-3.71023
C	1.27404	4.97918	-3.5897
C	2.11711	4.71008	-4.84489
C	3.51593	5.33819	-4.74088
C	4.36134	5.07016	-5.99584
C	5.75655	5.69914	-5.88703
O	-0.0651307	-6.48632	6.25919
O	-1.15467	-4.60799	6.80195
H	-0.228885	-5.34838	3.89154
H	-1.72067	-6.30883	4.22076
H	-2.98153	-4.18231	4.6982
H	-1.49369	-3.2244	4.36985
H	-1.43629	-4.13543	2.00816
H	-2.91328	-5.08635	2.33412
H	-4.31659	-3.09849	2.31883
H	-3.50988	-0.964031	1.63759
H	-1.19302	-0.27974	1.95146
H	-0.700267	-1.9205	2.45275
H	-0.400033	-2.64255	0.146911
H	-0.477518	-1.13663	-1.68835
H	-2.25506	0.687414	0.0394623
H	-1.85623	0.872959	-1.68513
H	-0.215134	1.80994	0.740682
H	1.22825	2.93163	-0.767673
H	0.185121	1.0742	-2.98533
H	1.52664	2.24106	-3.07994
H	-1.47683	2.79175	-3.47435
H	-0.876405	4.99206	-4.15954
H	1.79509	4.57641	-2.69097
H	1.17599	6.0773	-3.42858
H	1.5919	5.12201	-5.7389
H	2.216	3.609	-4.99533
H	4.04068	4.92616	-3.84665
H	3.41658	6.43919	-4.59023
H	3.83738	5.48233	-6.8911
H	4.46168	3.96884	-6.14729
H	6.35877	5.49735	-6.80308
H	6.31371	5.29195	-5.01201
H	5.69013	6.80369	-5.75495
H	0.123903	-6.45341	7.21176
C	10.2976	4.27149	4.25895
C	9.58261	4.45656	2.93295
C	9.77235	3.26721	1.97886
C	9.0397	3.47892	0.645327
C	9.23704	2.30209	-0.278042
C	8.4522	1.21452	-0.347642
C	7.22091	0.958953	0.484269
C	5.99088	1.50201	-0.196956
C	5.20436	0.833947	-1.05676
C	5.39334	-0.591027	-1.51261
C	4.66537	-1.5424	-0.596969
C	3.3979	-1.96772	-0.726656
C	2.4288	-1.58541	-1.81654
C	2.53236	-2.54014	-2.97883
C	1.82677	-3.67258	-3.13257
C	0.793998	-4.2095	-2.17306
C	-0.605885	-3.67637	-2.51186
C	-1.67277	-4.2128	-1.54435
C	-3.07439	-3.6806	-1.8815
C	-4.1356	-4.21895	-0.912943
O	10.1088	5.33253	5.06818
O	10.9605	3.31795	4.59289
H	8.49295	4.59606	3.12548
H	9.96652	5.38066	2.44046
H	10.8612	3.12078	1.78297
H	9.39154	2.33825	2.46619
H	7.95195	3.63157	0.833472
H	9.41091	4.40838	0.155244
H	10.1108	2.35688	-0.950481
H	8.71993	0.427937	-1.07488
H	7.10389	-0.133953	0.659288
H	7.33726	1.43103	1.48546
H	5.72412	2.54631	0.0424285
H	4.33295	1.36536	-1.47808
H	6.47716	-0.841677	-1.53739
H	5.02323	-0.708864	-2.55532
H	5.24732	-1.91861	0.262839
H	3.01096	-2.66885	0.0337202
H	2.6327	-0.546323	-2.15899
H	1.38982	-1.58359	-1.4177
H	3.25748	-2.27134	-3.76685
H	2.00546	-4.27893	-4.03768
H	1.06399	-3.92628	-1.12983
H	0.792003	-5.32326	-2.2043
H	-0.871219	-3.96969	-3.5551
H	-0.597037	-2.56142	-2.47194
H	-1.40693	-3.91946	-0.501247
H	-1.68112	-5.32775	-1.58442
H	-3.34151	-3.97385	-2.92483
H	-3.06724	-2.56515	-1.84134
H	-5.14674	-3.82548	-1.16856
H	-3.90705	-3.92488	0.137382
H	-4.18101	-5.33196	-0.944863
H	10.5877	5.15487	5.89481
