108
  This energy is -4.6173 and Call times are: 154
C	-4.86465	5.08833	3.99526
C	-3.42966	4.62084	4.15635
C	-3.30222	3.09127	4.22725
C	-1.84157	2.64421	4.39012
C	-1.73587	1.14064	4.45787
C	-1.57268	0.314031	3.41205
C	-1.46342	0.729065	1.96662
C	-0.0264144	0.981155	1.58791
C	0.832496	0.0718089	1.09847
C	0.532491	-1.38144	0.82992
C	0.0237876	-1.56737	-0.577246
C	0.763788	-1.81082	-1.67146
C	2.26387	-1.95085	-1.72894
C	2.67192	-3.38749	-1.52224
C	2.82791	-4.30817	-2.4876
C	2.6254	-4.08443	-3.96561
C	3.92835	-3.63027	-4.63995
C	3.74196	-3.39696	-6.14756
C	5.04453	-2.94242	-6.82442
C	4.85316	-2.71092	-8.32903
O	-4.93697	6.43282	3.9369
O	-5.8467	4.38782	3.92383
H	-2.82814	4.99475	3.2948
H	-3.00733	5.06299	5.0891
H	-3.90333	2.70991	5.08672
H	-3.72462	2.64185	3.29716
H	-1.23363	3.02634	3.53791
H	-1.41104	3.09391	5.31441
H	-1.8006	0.696783	5.46653
H	-1.51123	-0.769992	3.61299
H	-1.89251	-0.0631081	1.31308
H	-2.06665	1.64782	1.79118
H	0.339939	2.01277	1.73145
H	1.85919	0.405069	0.865909
H	-0.220528	-1.75519	1.55888
H	1.44799	-1.99399	0.987247
H	-1.07066	-1.49284	-0.704207
H	0.235305	-1.92239	-2.63466
H	2.73562	-1.30655	-0.953773
H	2.64228	-1.58572	-2.70977
H	2.85569	-3.69626	-0.478242
H	3.13176	-5.32734	-2.19133
H	1.83032	-3.32068	-4.12677
H	2.25969	-5.02231	-4.44318
H	4.71698	-4.40303	-4.47968
H	4.28414	-2.68765	-4.1607
H	2.95311	-2.62432	-6.30737
H	3.38596	-4.33973	-6.62635
H	5.83437	-3.71493	-6.66543
H	5.4014	-1.99902	-6.34636
H	5.80478	-2.38187	-8.80727
H	4.08305	-1.9285	-8.52041
H	4.51553	-3.64243	-8.83912
H	-5.87417	6.66807	3.83436
C	8.07169	4.12949	-6.82524
C	6.8557	3.85262	-5.96012
C	6.61593	2.35312	-5.72591
C	5.38075	2.09983	-4.84837
C	5.16107	0.623279	-4.62926
C	5.67031	-0.108923	-3.62517
C	6.56088	0.403453	-2.52162
C	5.74263	0.870963	-1.34525
C	5.35833	0.118019	-0.301421
C	5.6676	-1.34368	-0.0968415
C	6.96027	-1.51192	0.660904
C	7.10391	-1.5861	1.99434
C	6.00286	-1.51712	3.022
C	5.46874	-2.89475	3.32202
C	5.92474	-3.72581	4.27351
C	7.05927	-3.44304	5.22664
C	6.54842	-2.77611	6.51231
C	7.6908	-2.4799	7.49683
C	7.18191	-1.8125	8.7841
C	8.32596	-1.51893	9.76341
O	8.24996	5.45271	-7.00854
O	8.81349	3.30754	-7.30936
H	6.9906	4.35608	-4.97411
H	5.95504	4.29108	-6.45047
H	6.48161	1.84247	-6.7091
H	7.51444	1.90731	-5.23663
H	5.50522	2.61174	-3.86636
H	4.47993	2.54738	-5.32808
H	4.52111	0.114777	-5.3712
H	5.42345	-1.18464	-3.5913
H	7.26153	-0.398874	-2.19894
H	7.18855	1.24053	-2.90122
H	5.43841	1.93227	-1.35625
H	4.75858	0.601196	0.489841
H	5.73363	-1.85959	-1.0805
H	4.8361	-1.83441	0.456228
H	7.87241	-1.57939	0.0420956
H	8.12551	-1.71025	2.39486
H	5.18103	-0.86256	2.65501
H	6.38334	-1.0455	3.95546
H	4.6271	-3.23801	2.69525
H	5.43703	-4.71019	4.38287
H	7.81222	-2.78618	4.73364
H	7.58769	-4.39143	5.47714
H	5.80034	-3.4427	7.00304
H	6.02667	-1.82448	6.25353
H	8.43874	-1.81349	7.00563
H	8.2124	-3.43173	7.75515
H	6.43377	-2.4786	9.27655
H	6.66018	-0.859874	8.52681
H	7.94335	-1.03533	10.692
H	9.08108	-0.838397	9.30674
H	8.85493	-2.45525	10.0556
H	9.03792	5.56408	-7.56614
