108
  This energy is -3.7782 and Call times are: 987
C	-1.59912	-7.79205	1.49827
C	-1.77727	-6.86553	0.309347
C	-2.56942	-5.59476	0.653501
C	-2.73574	-4.67466	-0.565383
C	-3.51533	-3.43303	-0.208938
C	-2.99614	-2.27646	0.234272
C	-1.53242	-1.99483	0.461586
C	-0.893027	-1.43907	-0.785114
C	-0.802265	-0.139995	-1.11428
C	-1.3208	1.02155	-0.304345
C	-0.265422	1.5144	0.653128
C	0.656716	2.46077	0.411823
C	0.835728	3.2351	-0.869398
C	0.00892302	4.4957	-0.848538
C	0.411789	5.69388	-0.394672
C	1.76894	6.01157	0.182203
C	2.74437	6.46309	-0.914767
C	4.13385	6.79158	-0.345996
C	5.11159	7.24363	-1.44195
C	6.49695	7.5703	-0.869107
O	-0.900986	-8.89377	1.15896
O	-2.00958	-7.6111	2.62033
H	-0.772186	-6.57265	-0.0752681
H	-2.30968	-7.41556	-0.501764
H	-3.5763	-5.88059	1.04074
H	-2.04287	-5.0399	1.46611
H	-1.73384	-4.38944	-0.961277
H	-3.25608	-5.22398	-1.38354
H	-4.61064	-3.49915	-0.329415
H	-3.6913	-1.44784	0.456535
H	-1.4128	-1.27351	1.30073
H	-1.01154	-2.92934	0.768383
H	-0.464088	-2.17974	-1.48257
H	-0.303333	0.117381	-2.06511
H	-2.23145	0.716687	0.257675
H	-1.63516	1.84679	-0.981286
H	-0.2639	1.03889	1.64981
H	1.363	2.70871	1.22371
H	0.544552	2.60405	-1.73861
H	1.90994	3.48758	-1.01386
H	-1.01803	4.41127	-1.24513
H	-0.301884	6.53497	-0.43991
H	2.17642	5.11599	0.705013
H	1.67396	6.80865	0.954919
H	2.3324	7.36362	-1.42869
H	2.83892	5.65728	-1.68061
H	4.54534	5.89088	0.168013
H	4.03881	7.59724	0.419941
H	4.70101	8.14498	-1.95664
H	5.20769	6.43811	-2.20864
H	7.19576	7.89657	-1.67395
H	6.94291	6.68211	-0.365002
H	6.43681	8.38701	-0.11329
H	-0.821196	-9.44291	1.95663
C	0.539029	1.04394	-7.16862
C	0.369152	0.0814728	-6.00737
C	1.67098	-0.645437	-5.63633
C	1.47259	-1.61271	-4.45949
C	2.76025	-2.31688	-4.10944
C	3.67954	-1.88738	-3.22962
C	3.60255	-0.61724	-2.42075
C	2.91415	-0.861652	-1.1023
C	3.5113	-1.22264	0.0454306
C	4.98772	-1.45557	0.245425
C	5.67598	-0.17831	0.655752
C	5.86408	0.263568	1.91016
C	5.42732	-0.422649	3.17962
C	6.50692	-1.34711	3.68261
C	7.49437	-1.01624	4.53079
C	7.71549	0.343721	5.14495
C	6.96658	0.476531	6.47918
C	7.17985	1.85668	7.12087
C	6.43133	1.99182	8.45612
C	6.64743	3.37109	9.09251
O	-0.621431	1.66185	-7.46497
O	1.55837	1.26274	-7.77961
H	0.00446074	0.647535	-5.11829
H	-0.404769	-0.675736	-6.2749
H	2.04265	-1.21301	-6.52243
H	2.4508	0.106763	-5.36887
H	1.09592	-1.05369	-3.57208
H	0.69075	-2.36383	-4.71721
H	2.94742	-3.27022	-4.63358
H	4.57822	-2.50975	-3.07378
H	4.62704	-0.21998	-2.24361
H	3.05344	0.162695	-2.99429
H	1.81822	-0.72785	-1.0944
H	2.87374	-1.36622	0.935461
H	5.44117	-1.84753	-0.692049
H	5.1476	-2.23907	1.01916
H	6.05858	0.446006	-0.170886
H	6.39029	1.22537	2.04254
H	4.49039	-0.995417	2.99894
H	5.18376	0.335588	3.95699
H	6.46984	-2.38647	3.31196
H	8.21997	-1.7979	4.81595
H	7.37518	1.13661	4.43999
H	8.80502	0.513667	5.30459
H	7.31762	-0.316351	7.18124
H	5.87623	0.311624	6.30966
H	6.82889	2.64924	6.4184
H	8.27031	2.02126	7.29
H	6.78198	1.19951	9.15983
H	5.34014	1.82768	8.28798
H	6.09951	3.45564	10.0596
H	6.28787	4.18431	8.42074
H	7.72805	3.55686	9.29158
H	-0.448465	2.26023	-8.21077
