108
  This energy is -4.6899 and Call times are: 1815
C	-1.10326	7.42548	3.02708
C	-1.9953	6.38509	2.37472
C	-1.47785	5.92808	1.00205
C	-2.39739	4.87615	0.363458
C	-1.87401	4.43953	-0.982616
C	-1.02844	3.42051	-1.20682
C	-0.438073	2.51487	-0.155755
C	-1.32161	1.31613	0.0773418
C	-1.24797	0.142575	-0.571922
C	-0.268423	-0.211075	-1.66256
C	0.982868	-0.815124	-1.07702
C	1.20951	-2.11791	-0.841297
C	0.261022	-3.25832	-1.11149
C	0.465289	-3.80121	-2.50314
C	1.30881	-4.78817	-2.8471
C	2.21548	-5.54522	-1.90881
C	1.51167	-6.78651	-1.34091
C	2.42035	-7.57167	-0.381807
C	1.71811	-8.81423	0.187694
C	2.62927	-9.5944	1.14436
O	-1.58797	7.80158	4.22704
O	-0.0836104	7.88743	2.57194
H	-2.06927	5.49851	3.04732
H	-3.01876	6.81108	2.25239
H	-1.39981	6.81102	0.32397
H	-0.452823	5.50192	1.1168
H	-2.48473	3.99329	1.03786
H	-3.4248	5.29283	0.250819
H	-2.22872	5.02173	-1.85085
H	-0.729439	3.21512	-2.24973
H	0.575565	2.18085	-0.471565
H	-0.305947	3.07699	0.795731
H	-2.09599	1.42761	0.856407
H	-1.96617	-0.647855	-0.291448
H	-0.0121524	0.696912	-2.25246
H	-0.736311	-0.924123	-2.37722
H	1.78493	-0.100393	-0.821416
H	2.1845	-2.39912	-0.405637
H	-0.790491	-2.91538	-0.987947
H	0.415107	-4.06641	-0.361963
H	-0.139636	-3.33606	-3.3011
H	1.35659	-5.08621	-3.90904
H	2.53805	-4.87938	-1.07571
H	3.1443	-5.84911	-2.44396
H	1.19791	-7.45077	-2.18061
H	0.586756	-6.47321	-0.80131
H	2.73405	-6.90699	0.457588
H	3.34521	-7.88457	-0.921733
H	1.40415	-9.48013	-0.651303
H	0.792807	-8.50225	0.728425
H	2.10804	-10.4924	1.54987
H	2.9442	-8.96091	2.0054
H	3.55483	-9.93765	0.627263
H	-0.977268	8.46388	4.59118
C	0.470189	-4.16875	6.35706
C	0.905907	-2.73482	6.11685
C	2.32098	-2.62936	5.52754
C	2.73786	-1.16936	5.29403
C	4.12883	-1.08534	4.71557
C	4.44044	-1.08354	3.40922
C	3.45962	-1.16521	2.26695
C	3.01725	0.21105	1.84014
C	3.60754	0.976478	0.907473
C	4.82921	0.613608	0.101308
C	4.4348	-0.0867862	-1.17437
C	4.17361	0.491238	-2.35837
C	4.21844	1.96619	-2.66765
C	5.59435	2.37003	-3.13343
C	6.02513	2.37385	-4.40557
C	5.21692	1.97515	-5.61528
C	4.47351	3.18214	-6.2062
C	3.64369	2.79553	-7.4407
C	2.89891	4.00182	-8.03368
C	2.07218	3.61066	-9.26558
O	-0.77357	-4.22159	6.87336
O	1.11586	-5.16508	6.13195
H	0.185279	-2.24975	5.41736
H	0.874068	-2.1799	7.08378
H	3.0475	-3.11446	6.22202
H	2.36053	-3.18413	4.56
H	2.01337	-0.676488	4.60549
H	2.69533	-0.607326	6.25538
H	4.95305	-1.02002	5.447
H	5.50692	-1.01673	3.13096
H	3.9257	-1.69553	1.40654
H	2.57516	-1.76837	2.57141
H	2.12451	0.614093	2.34965
H	3.168	1.96804	0.700422
H	5.50065	-0.0396714	0.701729
H	5.41557	1.52964	-0.133579
H	4.3572	-1.1866	-1.11215
H	3.89641	-0.166405	-3.20107
H	3.93556	2.55248	-1.765
H	3.46507	2.21377	-3.44847
H	6.30069	2.68899	-2.34706
H	7.06269	2.69509	-4.6033
H	4.4868	1.18085	-5.33696
H	5.88594	1.52882	-6.38641
H	5.2117	3.96975	-6.48821
H	3.80126	3.61897	-5.43028
H	2.90581	2.00777	-7.1583
H	4.31628	2.35856	-8.21625
H	3.6363	4.79046	-8.31691
H	2.22541	4.43957	-7.25864
H	1.53756	4.49409	-9.68543
H	1.31158	2.83732	-9.00999
H	2.72084	3.1878	-10.067
H	-0.99332	-5.15913	7.00349
