108
  This energy is -2.4291 and Call times are: 3522
C	2.81155	-2.51581	7.16128
C	2.69959	-3.12312	5.77479
C	1.26851	-3.08301	5.21692
C	1.18204	-3.703	3.81405
C	-0.229278	-3.65489	3.2827
C	-0.766865	-2.65671	2.56277
C	-0.0633673	-1.38992	2.14589
C	0.612602	-1.56622	0.810245
C	0.0635958	-1.32207	-0.391075
C	-1.33679	-0.823424	-0.644717
C	-1.36637	0.683778	-0.675214
C	-1.19617	1.46717	-1.75295
C	-0.938638	1.00827	-3.16583
C	-2.23732	0.814311	-3.90675
C	-2.88161	1.74937	-4.62402
C	-2.43178	3.17473	-4.82793
C	-1.54038	3.30084	-6.0722
C	-1.07163	4.74717	-6.29683
C	-0.179484	4.87572	-7.54142
C	0.285715	6.32118	-7.7612
O	4.07873	-2.56868	7.61708
O	1.91361	-2.0357	7.812
H	3.37433	-2.5687	5.08108
H	3.0429	-4.1835	5.81515
H	0.587226	-3.6349	5.90737
H	0.917772	-2.02438	5.17523
H	1.86437	-3.16034	3.1199
H	1.53623	-4.75911	3.8467
H	-0.86344	-4.52772	3.51636
H	-1.81785	-2.75849	2.23977
H	-0.794656	-0.552672	2.09113
H	0.689145	-1.10554	2.91505
H	1.65465	-1.93014	0.837495
H	0.684249	-1.49853	-1.28713
H	-2.02372	-1.20124	0.144895
H	-1.71671	-1.23069	-1.60799
H	-1.54742	1.17859	0.295278
H	-1.24709	2.56053	-1.60649
H	-0.360483	0.0573752	-3.15708
H	-0.30527	1.75291	-3.69772
H	-2.68761	-0.191918	-3.84525
H	-3.82853	1.46739	-5.1166
H	-1.87741	3.52841	-3.92847
H	-3.31953	3.84025	-4.93
H	-2.10475	2.95114	-6.96885
H	-0.650977	2.63677	-5.95923
H	-0.507525	5.09653	-5.39988
H	-1.96132	5.4109	-6.40952
H	-0.743052	4.52676	-8.43949
H	0.711173	4.2123	-7.42955
H	0.931443	6.40026	-8.66637
H	0.87	6.69239	-6.88787
H	-0.58255	7.00649	-7.89664
H	4.08492	-2.16761	8.50213
C	10.4035	-5.7567	4.18677
C	8.95802	-5.31822	4.0383
C	8.75033	-3.82631	4.34145
C	7.28054	-3.40811	4.1842
C	7.09576	-1.94131	4.48557
C	7.1787	-0.937542	3.59719
C	7.47277	-1.08243	2.12546
C	6.19892	-1.25347	1.33806
C	5.46108	-0.265535	0.805351
C	5.75814	1.21062	0.887727
C	6.61158	1.64627	-0.276457
C	6.17671	2.08862	-1.46784
C	4.74035	2.24515	-1.89858
C	4.23046	3.62259	-1.55821
C	4.29503	4.7042	-2.35184
C	4.88984	4.7516	-3.73731
C	3.83191	4.43482	-4.80461
C	4.41941	4.47827	-6.22412
C	3.36253	4.16158	-7.29377
C	3.95395	4.20624	-8.7088
O	10.5467	-7.06859	3.91345
O	11.3383	-5.06038	4.50531
H	8.62191	-5.52601	2.99535
H	8.32408	-5.92013	4.73093
H	9.08628	-3.61083	5.38364
H	9.38332	-3.21775	3.65264
H	6.93613	-3.62564	3.14691
H	6.64126	-4.01584	4.86528
H	6.87278	-1.68847	5.53674
H	7.01956	0.0922555	3.96249
H	8.0244	-0.187113	1.76093
H	8.14007	-1.95738	1.95832
H	5.85266	-2.29192	1.19395
H	4.54755	-0.545239	0.251743
H	6.27523	1.44147	1.84555
H	4.80797	1.78951	0.900175
H	7.70289	1.58992	-0.117311
H	6.93527	2.37037	-2.21929
H	4.10912	1.47339	-1.40413
H	4.65032	2.06644	-2.99334
H	3.76455	3.73756	-0.56385
H	3.87997	5.65427	-1.97248
H	5.73154	4.0254	-3.81228
H	5.32766	5.75858	-3.92637
H	2.99627	5.17	-4.72717
H	3.4034	3.42282	-4.61216
H	5.25513	3.74313	-6.30105
H	4.84799	5.49033	-6.41606
H	2.52607	4.89675	-7.21792
H	2.93333	3.14903	-7.10287
H	3.17741	3.97489	-9.47432
H	4.78037	3.46731	-8.82236
H	4.37358	5.21302	-8.93728
H	11.4871	-7.28653	4.02532
