108
  This energy is -4.3224 and Call times are: 274
C	0.257274	-7.42912	3.20314
C	1.09476	-6.66057	2.19732
C	0.265593	-6.09872	1.03214
C	1.13553	-5.32598	0.0291531
C	0.305167	-4.78205	-1.10712
C	-0.295912	-3.58152	-1.13981
C	-0.257152	-2.5441	-0.046315
C	0.912566	-1.61185	-0.232374
C	0.90518	-0.465365	-0.932166
C	-0.272579	0.118617	-1.67103
C	-1.06562	1.03078	-0.769643
C	-0.87926	2.35013	-0.600019
C	0.163852	3.20442	-1.27476
C	-0.366535	3.76821	-2.56859
C	-1.01428	4.93609	-2.71142
C	-1.33711	5.91051	-1.60604
C	-0.206358	6.93349	-1.42269
C	-0.517175	7.93578	-0.299815
C	0.612993	8.96041	-0.11458
C	0.297903	9.9585	1.0073
O	1.01714	-7.90601	4.20886
O	-0.935471	-7.61659	3.1537
H	1.60374	-5.81669	2.71952
H	1.88135	-7.33745	1.78867
H	-0.248087	-6.93808	0.505775
H	-0.524967	-5.42135	1.43417
H	1.65639	-4.48913	0.549031
H	1.93125	-5.9948	-0.372592
H	0.192016	-5.44441	-1.98294
H	-0.874275	-3.31596	-2.04215
H	-1.2063	-1.96282	-0.043805
H	-0.187303	-3.04389	0.945706
H	1.85554	-1.91193	0.257314
H	1.84299	0.115565	-0.980063
H	-0.92419	-0.698093	-2.05376
H	0.0797065	0.679817	-2.56492
H	-1.87867	0.549793	-0.197737
H	-1.54958	2.87766	0.101316
H	1.07971	2.6029	-1.46953
H	0.472975	4.03208	-0.598032
H	-0.200238	3.15502	-3.47157
H	-1.34859	5.22613	-3.72282
H	-1.50558	5.35855	-0.652937
H	-2.29118	6.43869	-1.83453
H	-0.0485135	7.48614	-2.37896
H	0.743432	6.39728	-1.18782
H	-0.675166	7.38271	0.656186
H	-1.46712	8.47159	-0.534976
H	0.77165	9.51459	-1.07041
H	1.56384	8.42539	0.121103
H	1.12507	10.6954	1.13098
H	0.153642	9.43608	1.98103
H	-0.637636	10.524	0.790892
H	0.427622	-8.3847	4.8151
C	3.59403	5.06792	-0.834967
C	3.89874	3.86916	0.0447245
C	4.29245	2.62052	-0.75946
C	4.59551	1.42242	0.153031
C	4.97994	0.206454	-0.653262
C	6.22506	-0.129348	-1.02816
C	7.48076	0.644564	-0.715522
C	8.08653	0.181762	0.584788
C	8.99276	-0.799139	0.728945
C	9.58528	-1.63309	-0.37898
C	10.8355	-0.986569	-0.919711
C	12.0913	-1.18215	-0.485078
C	12.5222	-2.091	0.638075
C	12.8263	-3.47269	0.116883
C	14.0213	-3.90446	-0.318444
C	15.291	-3.09176	-0.370704
C	16.0854	-3.22201	0.937244
C	17.3837	-2.40028	0.903186
C	18.1802	-2.52914	2.21102
C	19.4752	-1.70712	2.17193
O	3.25321	6.14224	-0.0960802
O	3.63694	5.10502	-2.04204
H	4.73233	4.13119	0.737804
H	2.99929	3.63426	0.660929
H	3.46298	2.3534	-1.45666
H	5.19144	2.84901	-1.37999
H	5.41952	1.68376	0.8563
H	3.70368	1.19176	0.780188
H	4.14974	-0.456201	-0.953696
H	6.35705	-1.05274	-1.61907
H	8.21694	0.518659	-1.54073
H	7.24956	1.73178	-0.658285
H	7.7444	0.706476	1.49399
H	9.34694	-1.02805	1.74944
H	8.84118	-1.76398	-1.19585
H	9.81739	-2.65448	-0.00347811
H	10.6864	-0.283431	-1.75807
H	12.9021	-0.628745	-0.990958
H	11.7239	-2.14385	1.41166
H	13.4193	-1.67003	1.14462
H	11.981	-4.18275	0.097111
H	14.1006	-4.94649	-0.674377
H	15.047	-2.02115	-0.559632
H	15.9185	-3.42575	-1.22875
H	16.3313	-4.29555	1.11562
H	15.4529	-2.8796	1.79015
H	17.1373	-1.32689	0.72457
H	18.0158	-2.74286	0.050031
H	18.4276	-3.60269	2.3905
H	17.5488	-2.1863	3.06524
H	20.0427	-1.8094	3.12583
H	19.2597	-0.625262	2.01373
H	20.1374	-2.04002	1.33976
H	3.07147	6.87136	-0.712161
