108
  This energy is -2.5443 and Call times are: 1862
C	-3.76756	-4.20493	-5.80019
C	-2.83745	-3.00586	-5.77093
C	-3.34422	-1.8766	-4.86054
C	-2.38608	-0.675878	-4.84832
C	-2.89944	0.422215	-3.94992
C	-2.63164	0.559624	-2.64108
C	-1.76536	-0.35773	-1.81556
C	-0.329137	0.0992662	-1.83484
C	0.239414	0.953796	-0.968403
C	-0.443465	1.62657	0.19569
C	-0.328509	0.781704	1.43925
C	0.654452	0.830444	2.35336
C	1.8559	1.74109	2.33332
C	1.55636	3.03213	3.05211
C	1.74807	3.26744	4.36047
C	2.30001	2.28664	5.36494
C	3.82968	2.38954	5.4556
C	4.41115	1.39705	6.47488
C	5.94173	1.49826	6.56726
C	6.51715	0.505643	7.58592
O	-3.29125	-5.17326	-6.6075
O	-4.80824	-4.32414	-5.19769
H	-1.83323	-3.33517	-5.41457
H	-2.72274	-2.61119	-6.80774
H	-4.35004	-1.54309	-5.2106
H	-3.46289	-2.26515	-3.82112
H	-1.37747	-1.00254	-4.50498
H	-2.25815	-0.285751	-5.88433
H	-3.55308	1.17202	-4.4286
H	-3.079	1.41679	-2.10781
H	-2.13813	-0.386616	-0.767239
H	-1.83593	-1.39713	-2.20728
H	0.301562	-0.314774	-2.64096
H	1.30744	1.19631	-1.10903
H	-1.51506	1.80611	-0.0442156
H	0.0071898	2.62825	0.37362
H	-1.14323	0.053845	1.60029
H	0.591277	0.140101	3.21296
H	2.1554	1.95193	1.28242
H	2.72493	1.23412	2.80904
H	1.14264	3.84868	2.43476
H	1.48327	4.26401	4.75485
H	2.00716	1.24979	5.081
H	1.84851	2.47628	6.36575
H	4.11421	3.42835	5.74663
H	4.27413	2.19195	4.4515
H	4.1262	0.358425	6.1836
H	3.96627	1.59484	7.47875
H	6.2279	2.53696	6.85899
H	6.38787	1.30018	5.56346
H	7.62723	0.589489	7.64295
H	6.2648	-0.544294	7.31053
H	6.10501	0.691061	8.60457
H	-3.92646	-5.90821	-6.58386
C	3.93177	-5.33362	5.95501
C	5.04927	-5.07499	4.96102
C	4.56398	-5.06491	3.5032
C	5.71277	-4.8014	2.51793
C	5.21798	-4.79508	1.09258
C	4.77365	-3.72266	0.417212
C	4.68325	-2.31625	0.953237
C	5.9598	-1.55894	0.690822
C	6.23216	-0.824238	-0.400147
C	5.31738	-0.609661	-1.57963
C	4.44946	0.604383	-1.36449
C	4.7367	1.86791	-1.71828
C	5.98982	2.34539	-2.40738
C	5.82271	2.30078	-3.90513
C	5.35389	3.29659	-4.67487
C	4.90353	4.65263	-4.19124
C	6.07071	5.65071	-4.17747
C	5.63117	7.0394	-3.68714
C	6.79756	8.03978	-3.67254
C	6.35364	9.42425	-3.1824
O	4.39434	-5.33521	7.22084
O	2.76616	-5.51946	5.69608
H	5.51952	-4.09062	5.19292
H	5.82792	-5.86486	5.07799
H	4.09059	-6.04697	3.26462
H	3.783	-4.27741	3.37924
H	6.19427	-3.82443	2.75364
H	6.49962	-5.58107	2.63986
H	5.2292	-5.769	0.573016
H	4.44113	-3.86821	-0.625617
H	3.82621	-1.78654	0.48033
H	4.47756	-2.34169	2.04677
H	6.73298	-1.62326	1.47637
H	7.21511	-0.323911	-0.452674
H	4.68108	-1.50902	-1.7358
H	5.91728	-0.488277	-2.50887
H	3.48276	0.418918	-0.863927
H	3.98987	2.64819	-1.4883
H	6.8548	1.71493	-2.10262
H	6.23051	3.38228	-2.08261
H	6.11615	1.3585	-4.40013
H	5.28464	3.12533	-5.7633
H	4.46973	4.5643	-3.16876
H	4.08686	5.03518	-4.84558
H	6.49498	5.73835	-5.20562
H	6.88094	5.26367	-3.51526
H	5.20678	6.95127	-2.65908
H	4.82081	7.42595	-4.34947
H	7.22269	8.12898	-4.70075
H	7.60877	7.65415	-3.00986
H	7.20853	10.1396	-3.17672
H	5.94199	9.37137	-2.14817
H	5.55635	9.84565	-3.83711
H	3.63697	-5.50473	7.80552
