108
  This energy is -5.1485 and Call times are: 774
C	6.37643	-1.91378	4.60398
C	4.9529	-2.42318	4.47067
C	3.90231	-1.31249	4.62382
C	2.4712	-1.85336	4.48493
C	1.45391	-0.749649	4.638
C	0.957939	0.00824416	3.64641
C	1.32212	-0.0973569	2.18706
C	0.412474	-1.06617	1.4758
C	-0.748987	-0.762152	0.873494
C	-1.37534	0.606943	0.787888
C	-0.906719	1.32876	-0.45019
C	-1.4848	1.29941	-1.66227
C	-2.72791	0.537852	-2.0468
C	-3.95728	1.38384	-1.83204
C	-4.51637	2.20394	-2.7369
C	-4.02364	2.43822	-4.14328
C	-4.66519	1.44793	-5.12634
C	-4.17511	1.67105	-6.56582
C	-4.8158	0.681181	-7.55128
C	-4.32339	0.908054	-8.98659
O	7.26856	-2.91422	4.46424
O	6.71688	-0.772478	4.80834
H	4.83149	-2.90099	3.47025
H	4.77263	-3.20186	5.24853
H	4.01909	-0.828674	5.62269
H	4.0778	-0.5286	3.8491
H	2.34862	-2.34323	3.49151
H	2.29034	-2.64112	5.25215
H	1.09583	-0.561773	5.66517
H	0.215623	0.782764	3.90783
H	1.25468	0.904912	1.70782
H	2.37982	-0.428479	2.08508
H	0.744317	-2.11904	1.45614
H	-1.30965	-1.58193	0.390911
H	-1.11847	1.19983	1.69376
H	-2.48442	0.517731	0.779068
H	0.0058125	1.93927	-0.331654
H	-1.01441	1.88726	-2.47014
H	-2.80096	-0.397454	-1.44812
H	-2.66557	0.22167	-3.11201
H	-4.42979	1.31261	-0.836702
H	-5.41968	2.76622	-2.44247
H	-2.91439	2.33875	-4.17658
H	-4.25356	3.48288	-4.45517
H	-5.77486	1.55844	-5.09179
H	-4.42487	0.40507	-4.81095
H	-3.06541	1.56068	-6.59988
H	-4.41542	2.71406	-6.88072
H	-5.9261	0.79103	-7.51826
H	-4.57568	-0.362698	-7.23734
H	-4.79549	0.184067	-9.69052
H	-3.21797	0.785185	-9.05626
H	-4.56683	1.93758	-9.33687
H	8.15475	-2.52709	4.55907
C	3.30418	-6.15465	4.13557
C	4.05843	-6.01642	2.82572
C	3.41526	-5.00133	1.86824
C	4.19674	-4.88003	0.551247
C	3.55117	-3.87978	-0.375696
C	3.82013	-2.565	-0.427258
C	4.82016	-1.83351	0.431991
C	6.1781	-1.81584	-0.221951
C	6.6371	-0.875107	-1.0637
C	5.88764	0.350241	-1.52293
C	6.14104	1.50801	-0.590822
C	7.12349	2.41835	-0.692043
C	8.18574	2.47911	-1.76027
C	7.72182	3.31782	-2.9241
C	7.90178	4.64169	-3.06152
C	8.60259	5.54672	-2.07899
C	10.1043	5.64002	-2.38679
C	10.8363	6.55855	-1.39551
C	12.3392	6.65341	-1.70162
C	13.0651	7.57134	-0.709414
O	3.89657	-7.05181	4.94827
O	2.301	-5.56157	4.45514
H	5.10485	-5.6971	3.0424
H	4.09881	-7.01185	2.32434
H	2.36678	-5.31398	1.64823
H	3.37016	-4.00271	2.3644
H	5.2469	-4.57345	0.763489
H	4.25085	-5.87515	0.0525546
H	2.7911	-4.28273	-1.06745
H	3.26708	-1.95127	-1.15988
H	4.4735	-0.790983	0.61012
H	4.8883	-2.32126	1.4301
H	6.84612	-2.66017	0.0227904
H	7.65826	-0.996866	-1.46578
H	4.79744	0.133017	-1.5717
H	6.19732	0.619939	-2.55707
H	5.43868	1.60319	0.256003
H	7.17225	3.20924	0.0771121
H	8.43444	1.4515	-2.1077
H	9.12516	2.90107	-1.3384
H	7.18755	2.78209	-3.72821
H	7.50762	5.12951	-3.97009
H	8.45218	5.16748	-1.04217
H	8.14668	6.56291	-2.10962
H	10.2463	6.02655	-3.42372
H	10.5543	4.61984	-2.34765
H	10.6938	6.1718	-0.358727
H	10.3858	7.57853	-1.43482
H	12.4828	7.04061	-2.73861
H	12.7909	5.63346	-1.6622
H	14.1535	7.63119	-0.942647
H	12.9568	7.19919	0.335414
H	12.6491	8.60472	-0.739757
H	3.37052	-7.09486	5.76412
