108
  This energy is -5.0541 and Call times are: 1910
C	4.25063	6.82496	0.932851
C	2.99884	6.24147	1.56236
C	1.92998	5.85899	0.52695
C	0.674337	5.27147	1.18883
C	-0.363391	4.90203	0.157755
C	-0.477697	3.71207	-0.454262
C	0.409709	2.51403	-0.22915
C	-0.133791	1.64362	0.874904
C	-0.99498	0.62376	0.725112
C	-1.59018	0.145347	-0.575243
C	-0.717136	-0.912571	-1.2014
C	-0.798045	-2.23869	-1.00381
C	-1.77997	-2.95621	-0.112655
C	-3.0285	-3.31494	-0.877925
C	-3.23589	-4.45587	-1.55556
C	-2.26082	-5.5998	-1.68293
C	-2.45341	-6.61947	-0.550727
C	-1.46802	-7.79351	-0.663439
C	-1.65893	-8.81511	0.468517
C	-0.673063	-9.98492	0.351474
O	5.16385	7.14788	1.86989
O	4.45054	6.99752	-0.246337
H	3.27721	5.33379	2.14762
H	2.56723	6.98829	2.26937
H	1.6477	6.7628	-0.0637431
H	2.3558	5.11266	-0.185177
H	0.94941	4.3713	1.78543
H	0.246476	6.00939	1.90597
H	-1.08617	5.69383	-0.105389
H	-1.28993	3.58431	-1.19129
H	0.492345	1.9237	-1.16907
H	1.43933	2.84996	0.0273595
H	0.217088	1.87763	1.89528
H	-1.30581	0.0740553	1.63091
H	-1.71157	1.00148	-1.27553
H	-2.61156	-0.259669	-0.3996
H	0.0631994	-0.543126	-1.88992
H	-0.0798331	-2.8829	-1.54107
H	-2.03978	-2.31574	0.759609
H	-1.3126	-3.87599	0.304615
H	-3.83653	-2.56256	-0.871952
H	-4.20241	-4.5862	-2.07294
H	-1.21706	-5.21023	-1.66716
H	-2.39286	-6.10089	-2.6693
H	-3.49841	-7.0094	-0.57753
H	-2.31311	-6.11155	0.432697
H	-0.423187	-7.40312	-0.636822
H	-1.6085	-8.30099	-1.64707
H	-2.7039	-9.20661	0.442572
H	-1.51824	-8.30848	1.45311
H	-0.822239	-10.7179	1.17794
H	0.381554	-9.62739	0.394446
H	-0.802742	-10.5245	-0.614932
H	5.9363	7.51339	1.40735
C	6.56023	5.41948	5.98121
C	5.96805	4.02866	5.84461
C	4.95963	3.91754	4.69067
C	4.37536	2.50161	4.57371
C	3.38806	2.41139	3.43636
C	3.67723	2.08801	2.16535
C	5.0457	1.75225	1.62868
C	5.31534	0.273024	1.73421
C	5.03237	-0.649923	0.800253
C	4.38923	-0.392373	-0.539187
C	5.43719	-0.110413	-1.58596
C	6.04903	-1.01242	-2.37096
C	5.81986	-2.5026	-2.37492
C	4.72719	-2.86976	-3.34674
C	4.89685	-3.17318	-4.64407
C	6.21266	-3.2057	-5.38106
C	6.85362	-4.59941	-5.30743
C	8.19637	-4.65251	-6.05326
C	8.83957	-6.04625	-5.98089
C	10.1795	-6.09397	-6.72681
O	7.43855	5.47858	7.00167
O	6.31002	6.37979	5.29169
H	6.79394	3.29849	5.67533
H	5.4581	3.75694	6.79855
H	4.13075	4.647	4.85285
H	5.46306	4.18976	3.73259
H	5.19819	1.76654	4.41719
H	3.87561	2.22044	5.52927
H	2.33717	2.63468	3.69005
H	2.84859	2.06141	1.43604
H	5.12418	2.0753	0.566484
H	5.82117	2.3183	2.1917
H	5.78939	-0.0686833	2.67099
H	5.28919	-1.70118	1.01971
H	3.68591	0.466608	-0.464325
H	3.7763	-1.27038	-0.841716
H	5.71925	0.950357	-1.70715
H	6.79859	-0.641412	-3.09206
H	5.55052	-2.84834	-1.35195
H	6.76144	-3.03113	-2.6444
H	3.70031	-2.88666	-2.94145
H	4.00313	-3.42437	-5.24156
H	6.9061	-2.44757	-4.95
H	6.05661	-2.91728	-6.44591
H	6.15616	-5.35129	-5.74676
H	7.01251	-4.87778	-4.23876
H	8.89342	-3.90035	-5.61377
H	8.03706	-4.37387	-7.12179
H	8.14312	-6.79953	-6.42069
H	8.99974	-6.32587	-4.91222
H	10.6349	-7.10963	-6.66649
H	10.9048	-5.36529	-6.29692
H	10.0492	-5.8384	-7.80365
H	7.78029	6.38751	7.03712
