108
  This energy is -1.6338 and Call times are: 447
C	-5.54391	5.59952	1.85163
C	-5.57769	4.21455	1.2316
C	-4.65469	4.08216	0.0103862
C	-4.70699	2.67261	-0.598167
C	-3.79524	2.56133	-1.79517
C	-2.5041	2.19253	-1.77096
C	-1.71523	1.81802	-0.541783
C	-1.81583	0.338895	-0.269703
C	-0.990565	-0.609146	-0.743352
C	0.200326	-0.384856	-1.64087
C	1.44562	-0.153458	-0.822841
C	2.30572	-1.08991	-0.38987
C	2.21162	-2.57563	-0.62851
C	2.93048	-2.95667	-1.89784
C	4.22406	-3.30447	-1.99582
C	5.20901	-3.38158	-0.855862
C	5.21728	-4.78215	-0.225758
C	6.21557	-4.88054	0.938624
C	6.22553	-6.2812	1.57067
C	7.22354	-6.37417	2.73232
O	-6.36422	5.67764	2.91806
O	-4.88578	6.54089	1.47625
H	-5.27133	3.46632	1.99984
H	-6.62357	3.98187	0.921917
H	-4.95473	4.8295	-0.762224
H	-3.60606	4.31531	0.312852
H	-4.41389	1.91995	0.16961
H	-5.75271	2.43039	-0.89762
H	-4.24714	2.80928	-2.77133
H	-1.95769	2.1555	-2.72977
H	-0.64836	2.10531	-0.676051
H	-2.09076	2.38963	0.336288
H	-2.64946	0.0201701	0.380302
H	-1.19036	-1.6567	-0.457032
H	0.0155229	0.487108	-2.30692
H	0.342663	-1.26238	-2.31005
H	1.65791	0.898252	-0.561471
H	3.17529	-0.754284	0.202311
H	1.14398	-2.88384	-0.689289
H	2.64637	-3.12741	0.23467
H	2.32664	-2.94423	-2.82211
H	4.62052	-3.56066	-2.99382
H	4.95285	-2.62098	-0.0829999
H	6.23011	-3.12528	-1.22068
H	5.48094	-5.5367	-1.00417
H	4.19336	-5.02833	0.14271
H	5.95169	-4.12569	1.71667
H	7.23929	-4.63406	0.569775
H	6.4898	-7.03719	0.793142
H	5.20182	-6.52866	1.94037
H	7.22069	-7.39442	3.18136
H	6.97392	-5.64354	3.53591
H	8.26041	-6.15148	2.39
H	-6.29855	6.58173	3.26809
C	11.1336	-6.80032	4.09463
C	10.5969	-5.42692	4.45448
C	11.5239	-4.28568	4.00835
C	10.9588	-2.90744	4.38388
C	11.8816	-1.79996	3.93837
C	11.8455	-1.17371	2.75087
C	10.8749	-1.4565	1.63217
C	9.63991	-0.602534	1.76457
C	9.46243	0.617411	1.23125
C	10.4611	1.37662	0.39438
C	10.2811	1.05615	-1.06793
C	9.48727	1.7017	-1.93818
C	8.60424	2.88695	-1.6405
C	9.3546	4.17657	-1.85729
C	9.41851	4.8662	-3.00804
C	8.75252	4.48516	-4.30683
C	7.34298	5.08733	-4.40319
C	6.64768	4.70986	-5.72081
C	5.23703	5.31136	-5.81941
C	4.54733	4.93168	-7.13631
O	10.2954	-7.77434	4.5009
O	12.1692	-7.04123	3.52052
H	9.59899	-5.29114	3.9753
H	10.4589	-5.37027	5.55976
H	12.5254	-4.41619	4.48313
H	11.6678	-4.33727	2.90286
H	9.95571	-2.77209	3.9177
H	10.8071	-2.85043	5.48643
H	12.65	-1.4889	4.66729
H	12.587	-0.377692	2.56205
H	11.3635	-1.2638	0.650914
H	10.5921	-2.53294	1.64104
H	8.81341	-1.03231	2.35722
H	8.49907	1.12504	1.41433
H	11.4961	1.12312	0.714518
H	10.3433	2.47044	0.56115
H	10.8686	0.201059	-1.44628
H	9.46787	1.3403	-2.98148
H	8.23663	2.83295	-0.591455
H	7.70024	2.85968	-2.28903
H	9.89551	4.57833	-0.982626
H	10.0077	5.79973	-3.02393
H	8.69605	3.3756	-4.39128
H	9.37164	4.83314	-5.16533
H	7.40889	6.19829	-4.32446
H	6.72783	4.72897	-3.54415
H	6.58219	3.59885	-5.79924
H	7.26325	5.06819	-6.57956
H	5.30144	6.42297	-5.74141
H	4.62017	4.9532	-4.96086
H	3.52585	5.37407	-7.19485
H	4.44987	3.82591	-7.23456
H	5.13035	5.29399	-8.01421
H	10.6918	-8.62331	4.24336
