108
  This energy is -3.7139 and Call times are: 628
C	-2.30281	-7.04657	3.24977
C	-1.2274	-6.61274	2.27048
C	-1.78791	-5.82936	1.07341
C	-0.680577	-5.40218	0.098092
C	-1.24904	-4.63485	-1.07004
C	-1.42053	-3.30422	-1.1306
C	-1.07783	-2.31889	-0.0419522
C	0.338719	-1.82582	-0.190998
C	0.731182	-0.752436	-0.896695
C	-0.164724	0.173498	-1.68032
C	-0.642154	1.31053	-0.812749
C	-0.0378351	2.49812	-0.643586
C	1.24924	2.95094	-1.28511
C	0.975495	3.63586	-2.60006
C	0.752747	4.94913	-2.77219
C	0.733067	5.99393	-1.68426
C	2.13083	6.59168	-1.46603
C	2.13109	7.65915	-0.360335
C	3.5288	8.25868	-0.140237
C	3.52367	9.32357	0.964323
O	-1.77466	-7.72963	4.28456
O	-3.48864	-6.83268	3.15868
H	-0.486229	-5.97421	2.80607
H	-0.694469	-7.51718	1.89384
H	-2.53189	-6.46214	0.533474
H	-2.3242	-4.92325	1.44329
H	0.0695664	-4.77424	0.631813
H	-0.136608	-6.3019	-0.271363
H	-1.54558	-5.2379	-1.94581
H	-1.85017	-2.87862	-2.05446
H	-1.78261	-1.45815	-0.0764945
H	-1.20804	-2.79716	0.954577
H	1.11437	-2.41071	0.333703
H	1.80889	-0.512655	-0.914097
H	-1.03605	-0.390176	-2.08177
H	0.380964	0.572764	-2.56401
H	-1.58604	1.13295	-0.267748
H	-0.519511	3.22824	0.0305014
H	1.9221	2.0788	-1.44379
H	1.79149	3.64239	-0.602166
H	0.95974	2.987	-3.49324
H	0.564996	5.31586	-3.79643
H	0.362004	5.54402	-0.73488
H	0.013577	6.80226	-1.94956
H	2.49219	7.04569	-2.41896
H	2.84343	5.77727	-1.19447
H	1.76947	7.20479	0.592329
H	1.41822	8.47322	-0.63218
H	3.89141	8.71387	-1.09271
H	4.24276	7.44506	0.132158
H	4.54275	9.74988	1.1136
H	3.18452	8.89394	1.93504
H	2.83357	10.1613	0.71158
H	-2.50791	-7.97789	4.87185
C	9.86699	7.37912	-1.91955
C	8.8365	6.82956	-0.950114
C	7.78763	5.9379	-1.63249
C	6.75724	5.39483	-0.630851
C	5.73614	4.52221	-1.31814
C	5.83026	3.19544	-1.50381
C	6.9756	2.3205	-1.06094
C	6.73937	1.79084	0.330325
C	6.11288	0.644623	0.64319
C	5.52096	-0.341004	-0.332635
C	6.5439	-1.37544	-0.72885
C	6.77424	-2.5497	-0.11872
C	6.05917	-3.08731	1.09487
C	4.85522	-3.89792	0.686739
C	4.84218	-5.21792	0.439061
C	6.02863	-6.14594	0.520901
C	6.16857	-6.74197	1.92939
C	7.37299	-7.69106	2.03269
C	7.51497	-8.28868	3.44129
C	8.71852	-9.23523	3.53913
O	10.7688	8.15501	-1.28624
O	9.91569	7.17722	-3.10997
H	9.35943	6.23645	-0.163566
H	8.31798	7.68174	-0.451296
H	7.26126	6.52491	-2.42231
H	8.29996	5.08344	-2.13534
H	7.27635	4.8119	0.164512
H	6.24523	6.24285	-0.120363
H	4.83635	5.03782	-1.69646
H	5.00203	2.68526	-2.02631
H	7.09956	1.47281	-1.77145
H	7.92547	2.89997	-1.08788
H	7.12202	2.4129	1.15837
H	6.01422	0.386059	1.71215
H	5.15132	0.193535	-1.23582
H	4.63371	-0.837447	0.119497
H	7.158	-1.12725	-1.61246
H	7.56415	-3.19904	-0.535701
H	5.74594	-2.24743	1.75444
H	6.753	-3.71467	1.69784
H	3.90583	-3.34328	0.586383
H	3.88469	-5.68388	0.147631
H	6.95848	-5.59538	0.249413
H	5.92024	-6.96476	-0.226908
H	5.23658	-7.29679	2.19084
H	6.28321	-5.91635	2.67101
H	8.3047	-7.13591	1.77095
H	7.25805	-8.51638	1.29077
H	6.58343	-8.84465	3.70402
H	7.63038	-7.46378	4.18434
H	8.80984	-9.66134	4.56511
H	9.66844	-8.70322	3.30139
H	8.62269	-10.0825	2.82162
H	11.3967	8.47423	-1.95557
