108
  This energy is -2.9377 and Call times are: 2521
C	1.1475	-2.53141	7.60219
C	1.87001	-2.72638	6.28171
C	0.954736	-3.2664	5.17198
C	1.70912	-3.45474	3.84709
C	0.795349	-3.98516	2.76999
C	0.0664696	-3.24431	1.91938
C	0.0203021	-1.73784	1.87623
C	1.07634	-1.19504	0.947729
C	0.926056	-0.95589	-0.365438
C	-0.327007	-1.18189	-1.17341
C	-1.19108	0.0537546	-1.16998
C	-1.14517	1.06639	-2.05125
C	-0.219093	1.18623	-3.23497
C	-0.841008	0.567519	-4.46117
C	-1.61556	1.20205	-5.35636
C	-2.01387	2.65626	-5.30943
C	-0.996876	3.53269	-6.05526
C	-1.38584	5.0191	-6.01848
C	-0.369555	5.89802	-6.76422
C	-0.762333	7.38066	-6.72457
O	1.98053	-2.05758	8.54973
O	-0.0186179	-2.75643	7.82528
H	2.29741	-1.74936	5.95511
H	2.7148	-3.43867	6.43291
H	0.522069	-4.24377	5.49293
H	0.10578	-2.55892	5.01639
H	2.14903	-2.48349	3.52298
H	2.56228	-4.15604	3.99604
H	0.73238	-5.0842	2.68795
H	-0.560518	-3.77172	1.17912
H	-0.986112	-1.40058	1.54133
H	0.169797	-1.32625	2.89947
H	2.05873	-0.978837	1.40292
H	1.79347	-0.555757	-0.919279
H	-0.89549	-2.04447	-0.760028
H	-0.0611684	-1.45699	-2.21828
H	-1.93185	0.117416	-0.353473
H	-1.85058	1.90396	-1.90857
H	0.751469	0.690384	-3.00982
H	0.0154659	2.25704	-3.42703
H	-0.63234	-0.504212	-4.62514
H	-2.00551	0.622602	-6.21134
H	-2.09653	2.99145	-4.25006
H	-3.02537	2.78572	-5.75835
H	-0.924939	3.19503	-7.1162
H	0.0114114	3.40243	-5.59573
H	-1.45788	5.35628	-4.95739
H	-2.39425	5.14888	-6.47789
H	-0.296966	5.56174	-7.82608
H	0.639675	5.7692	-6.30513
H	-0.0174057	8.00644	-7.26867
H	-0.823611	7.75216	-5.6757
H	-1.75917	7.54494	-7.19489
H	1.46253	-1.95487	9.3654
C	4.66135	-0.407211	-8.04046
C	4.22889	-1.26826	-6.86773
C	5.39945	-1.67512	-5.95938
C	4.93586	-2.54517	-4.78124
C	6.0976	-2.93478	-3.90087
C	6.55007	-2.24435	-2.84152
C	5.98409	-0.945118	-2.32661
C	4.90646	-1.1974	-1.30337
C	5.08841	-1.31718	0.0220486
C	6.40486	-1.22353	0.751607
C	6.68586	0.200661	1.15927
C	6.32834	0.789784	2.31222
C	5.56834	0.153757	3.44846
C	6.51746	-0.478274	4.4348
C	7.05943	0.12695	5.50433
C	6.82433	1.55588	5.92678
C	5.62659	1.66026	6.8824
C	5.37103	3.10989	7.32434
C	4.17291	3.21672	8.28066
C	3.92202	4.66556	8.71881
O	3.60996	-0.070535	-8.81345
O	5.78636	-0.0445136	-8.29152
H	3.47947	-0.706018	-6.26264
H	3.73576	-2.1896	-7.25741
H	6.15441	-2.23712	-6.55907
H	5.89879	-0.757461	-5.56692
H	4.17716	-1.9924	-4.18065
H	4.43092	-3.46126	-5.16556
H	6.61053	-3.87558	-4.16619
H	7.41379	-2.65228	-2.28761
H	6.79631	-0.331968	-1.87593
H	5.56981	-0.352349	-3.17264
H	3.8779	-1.29002	-1.69391
H	4.19913	-1.50191	0.649993
H	7.22629	-1.60267	0.103841
H	6.38924	-1.88004	1.64985
H	7.2431	0.807768	0.424157
H	6.61213	1.84692	2.45854
H	4.86507	-0.612844	3.05314
H	4.94106	0.917246	3.96046
H	6.78179	-1.53396	4.24853
H	7.74178	-0.459115	6.14444
H	6.64777	2.1913	5.02872
H	7.73807	1.95917	6.42062
H	5.81406	1.02676	7.78147
H	4.71495	1.26076	6.37832
H	5.18384	3.74306	6.42498
H	6.28296	3.50905	7.82815
H	4.35932	2.58386	9.18102
H	3.25987	2.81793	7.77744
H	3.05105	4.72877	9.4116
H	3.71245	5.32005	7.84153
H	4.81063	5.08624	9.24349
H	3.94934	0.476261	-9.54148
