108
  This energy is -2.9371 and Call times are: 2369
C	4.28045	-0.626953	-6.84125
C	4.42675	0.152483	-5.54712
C	3.18748	0.997132	-5.21306
C	3.36063	1.7755	-3.90002
C	2.13505	2.59849	-3.58835
C	1.07316	2.19162	-2.87387
C	0.900184	0.832456	-2.24442
C	1.45235	0.816443	-0.841986
C	0.771668	1.10996	0.278154
C	-0.679073	1.51377	0.357841
C	-1.56005	0.3004	0.516163
C	-1.94703	-0.263855	1.67204
C	-1.5838	0.194537	3.06168
C	-2.5958	1.18701	3.57551
C	-3.70923	0.890231	4.26552
C	-4.16386	-0.492821	4.66055
C	-3.59943	-0.889796	6.0326
C	-4.05201	-2.29717	6.45277
C	-3.48837	-2.6965	7.82547
C	-3.943	-4.10197	8.24024
O	5.38471	-1.35458	-7.10099
O	3.32157	-0.628606	-7.57663
H	4.61282	-0.563355	-4.71234
H	5.31254	0.825358	-5.62784
H	2.99436	1.71503	-6.0454
H	2.29649	0.329988	-5.13232
H	3.55955	1.06518	-3.0647
H	4.25232	2.44011	-3.97112
H	2.12755	3.62586	-3.99215
H	0.244063	2.90564	-2.72544
H	-0.178454	0.558494	-2.22845
H	1.4151	0.0625056	-2.86152
H	2.51546	0.535776	-0.741697
H	1.3122	1.05473	1.23942
H	-0.967906	2.07644	-0.557625
H	-0.833573	2.20982	1.21209
H	-1.91477	-0.159281	-0.423171
H	-2.59737	-1.15461	1.61645
H	-0.569868	0.653307	3.05758
H	-1.52711	-0.680014	3.7476
H	-2.39004	2.24963	3.35751
H	-4.3638	1.72144	4.58087
H	-3.84078	-1.23101	3.89105
H	-5.27711	-0.53236	4.68406
H	-3.93275	-0.149806	6.79817
H	-2.48481	-0.854098	5.99875
H	-3.71869	-3.03678	5.68684
H	-5.16665	-2.33248	6.48628
H	-3.82157	-1.95734	8.59262
H	-2.37318	-2.66185	7.79295
H	-3.52746	-4.37888	9.23684
H	-3.60733	-4.86686	7.50257
H	-5.05404	-4.16316	8.30132
H	5.23018	-1.82711	-7.93588
C	7.35071	7.56397	1.51603
C	8.02584	6.28557	1.05385
C	7.78011	5.10171	2.00196
C	8.47322	3.82116	1.51237
C	8.22115	2.67026	2.45491
C	7.1987	1.80242	2.38354
C	6.10394	1.81038	1.34677
C	6.48716	0.970373	0.155346
C	6.23756	-0.340258	-5.80861e-06
C	5.52511	-1.23324	0.984399
C	4.04113	-1.24012	0.717543
C	3.37636	-2.07994	-0.0929996
C	3.97091	-3.19782	-0.911539
C	3.99079	-4.48217	-0.122104
C	3.01187	-5.40116	-0.0892323
C	1.70278	-5.32744	-0.835167
C	1.81937	-5.97579	-2.22251
C	0.49438	-5.91045	-2.99852
C	0.608726	-6.55866	-4.38712
C	-0.716366	-6.49084	-5.15757
O	7.58805	8.57853	0.661258
O	6.67906	7.70486	2.51065
H	7.64564	6.02176	0.0390851
H	9.12389	6.46419	0.974659
H	8.15694	5.35954	3.02028
H	6.68259	4.91828	2.08718
H	8.1059	3.5604	0.493069
H	9.56949	3.99844	1.41936
H	8.95357	2.54514	3.2713
H	7.14109	1.00568	3.14587
H	5.15958	1.42494	1.79218
H	5.8995	2.85508	1.02186
H	7.02166	1.49408	-0.65649
H	6.58052	-0.823599	-0.931683
H	5.72294	-0.887681	2.02341
H	5.92789	-2.26844	0.919222
H	3.45554	-0.470217	1.25029
H	2.28293	-1.95216	-0.179924
H	5.00391	-2.92978	-1.22717
H	3.38531	-3.33626	-1.84772
H	4.89797	-4.6709	0.478273
H	3.16113	-6.29923	0.535279
H	1.38707	-4.26409	-0.940281
H	0.903645	-5.83437	-0.247071
H	2.12925	-7.04148	-2.10822
H	2.61659	-5.45851	-2.80703
H	0.184765	-4.84463	-3.11238
H	-0.302577	-6.42763	-2.41356
H	0.918109	-7.62518	-4.27433
H	1.40559	-6.04172	-4.97335
H	-0.619575	-6.96412	-6.16216
H	-1.04233	-5.4353	-5.30415
H	-1.52926	-7.01694	-4.60593
H	7.13273	9.36305	1.0097
