108
  This energy is 0.1054 and Call times are: 3167
C	7.03291	0.0316233	-4.0069
C	6.43556	0.845739	-2.87372
C	5.07437	1.46211	-3.23161
C	4.49164	2.28026	-2.06929
C	3.15613	2.87738	-2.43852
C	1.95725	2.30007	-2.25674
C	1.71379	0.942286	-1.64795
C	1.53734	1.0476	-0.154722
C	0.37488	1.23381	0.491963
C	-0.984904	1.37468	-0.144598
C	-1.6446	0.0268438	-0.291548
C	-2.44032	-0.578186	0.605645
C	-2.84593	-0.0398554	1.95429
C	-4.11597	0.765291	1.84515
C	-5.36461	0.286743	1.97086
C	-5.73934	-1.14842	2.24554
C	-5.83397	-1.41627	3.75484
C	-6.21511	-2.87459	4.05502
C	-6.31038	-3.14489	5.56476
C	-6.69105	-4.6018	5.85905
O	8.22424	-0.492375	-3.65697
O	6.54465	-0.152418	-5.09683
H	6.3119	0.188118	-1.98145
H	7.14364	1.66388	-2.60324
H	5.19044	2.12055	-4.12517
H	4.3609	0.648685	-3.50502
H	4.37809	1.63035	-1.17117
H	5.20158	3.09147	-1.78679
H	3.18605	3.88032	-2.89876
H	1.05965	2.85775	-2.57697
H	0.808834	0.481332	-2.10329
H	2.56672	0.266076	-1.88038
H	2.45693	0.961975	0.4503
H	0.401522	1.29125	1.59435
H	-0.88986	1.86201	-1.14038
H	-1.62473	2.0461	0.470152
H	-1.44305	-0.503868	-1.23876
H	-2.84698	-1.57111	0.344481
H	-2.03043	0.591639	2.37228
H	-2.98848	-0.879067	2.67119
H	-3.99312	1.84385	1.64354
H	-6.20634	0.993474	1.86677
H	-4.9864	-1.82996	1.78725
H	-6.71294	-1.38474	1.75801
H	-6.59424	-0.734843	4.20477
H	-4.85375	-1.18366	4.23425
H	-5.45473	-3.55566	3.60473
H	-7.19525	-3.10683	3.57525
H	-7.07116	-2.46423	6.01622
H	-5.33012	-2.91319	6.04571
H	-6.75666	-4.78411	6.95678
H	-5.93813	-5.30685	5.43725
H	-7.67716	-4.85841	5.4078
H	8.55277	-0.998455	-4.41865
C	-4.55737	-1.98594	2.28332
C	-3.94716	-0.897815	1.41883
C	-2.85656	-0.0960645	2.1459
C	-2.25549	0.997876	1.25041
C	-1.18731	1.77418	1.98035
C	0.122251	1.47771	2.00854
C	0.778921	0.310666	1.31553
C	1.21718	0.690233	-0.0758023
C	2.41204	1.20113	-0.415615
C	3.55322	1.49718	0.524674
C	4.45641	0.297198	0.657885
C	5.52799	0.012426	-0.100279
C	6.05941	0.831728	-1.24897
C	7.06954	1.83899	-0.760881
C	8.39342	1.63857	-0.655599
C	9.12708	0.367627	-1.0049
C	9.57414	0.372958	-2.47419
C	10.3241	-0.914981	-2.84942
C	10.7724	-0.911831	-4.31928
C	11.5205	-2.19945	-4.68875
O	-5.50813	-2.66671	1.61332
O	-4.26425	-2.24706	3.42618
H	-3.50622	-1.36453	0.506887
H	-4.75341	-0.199496	1.09296
H	-3.29069	0.372699	3.06092
H	-2.0468	-0.789256	2.47639
H	-1.82478	0.537622	0.331416
H	-3.0596	1.6911	0.911671
H	-1.53135	2.66357	2.53643
H	0.790935	2.13897	2.5872
H	1.65662	-0.0340987	1.90676
H	0.0708579	-0.546714	1.26741
H	0.477567	0.527807	-0.879311
H	2.59038	1.43129	-1.48074
H	3.15745	1.78782	1.52317
H	4.1341	2.37096	0.154284
H	4.19695	-0.409723	1.46561
H	6.0876	-0.911878	0.127712
H	5.22149	1.35272	-1.76376
H	6.52466	0.16441	-2.00843
H	6.67066	2.8257	-0.467036
H	9.01781	2.46843	-0.281057
H	8.47126	-0.512354	-0.812616
H	10.0136	0.248228	-0.340586
H	10.2353	1.25289	-2.65675
H	8.68056	0.486163	-3.13259
H	9.66266	-1.79464	-2.66651
H	11.2175	-1.02791	-2.19066
H	11.4346	-0.0322906	-4.50329
H	9.87932	-0.799257	-4.97928
H	11.8397	-2.18411	-5.75664
H	10.8771	-3.09622	-4.53451
H	12.4306	-2.33014	-4.05907
H	-5.85785	-3.34416	2.21578
