44
  This energy is -6.3186 and Call times are: 43218
C	-0.859959	0.890899	3.25261
C	0.11069	0.397054	2.25006
O	1.29967	0.292621	2.51806
H	-0.322411	1.1372	4.19402
H	-1.61993	0.110217	3.46643
H	-1.36548	1.80571	2.87757
N	-0.383984	0.0793092	1.05143
C	0.44264	-0.374169	-0.0392623
C	-0.227381	0.0281781	-1.33955
O	-1.36755	0.488283	-1.34445
H	-1.3476	0.208493	0.835486
H	1.39828	0.133483	0.00174222
C	0.639704	-1.90492	0.0172908
H	-0.339693	-2.4265	-0.0353693
H	1.28592	-2.26466	-0.809458
H	1.1241	-2.17726	0.980382
N	0.474131	-0.1294	-2.47932
C	-0.079603	0.231072	-3.76369
H	1.3969	-0.499494	-2.45473
H	0.650362	0.0272804	-4.57784
H	-0.339796	1.31409	-3.78926
H	-1.00653	-0.351627	-3.96962
C	6.61742	2.13674	-2.25617
C	5.43025	1.39814	-1.77012
O	4.31705	1.61808	-2.2271
H	6.30242	2.8695	-3.03057
H	7.34928	1.43235	-2.70446
H	7.09736	2.68406	-1.41762
N	5.64575	0.491547	-0.814064
C	4.58393	-0.275043	-0.211203
C	4.99957	-0.626678	1.20484
O	6.14356	-0.40717	1.59828
H	6.55126	0.352803	-0.423361
H	3.69437	0.338703	-0.143276
C	4.29735	-1.55584	-1.02525
H	5.20678	-2.19087	-1.08631
H	3.47222	-2.1478	-0.578867
H	4.00287	-1.27483	-2.05998
N	4.0703	-1.17697	2.01084
C	4.37276	-1.5395	3.37585
H	3.14882	-1.34317	1.67569
H	3.47921	-1.97611	3.87402
H	4.69639	-0.645805	3.95711
H	5.19534	-2.29005	3.41015
