44
  This energy is 0.1038 and Call times are: 46254
C	-0.00176643	2.99977	1.76466
C	-0.632559	2.03175	0.839369
O	-1.80381	2.1462	0.505473
H	-0.753743	3.75945	2.07011
H	0.8446	3.51364	1.26232
H	0.369247	2.47667	2.6712
N	0.14385	1.03867	0.399651
C	-0.339742	-0.00359371	-0.471208
C	0.477087	-1.25505	-0.210052
O	1.47654	-1.21694	0.505045
H	1.0837	0.935596	0.712582
H	-1.36803	-0.231145	-0.219252
C	-0.225711	0.418112	-1.95256
H	0.830512	0.641495	-2.21434
H	-0.607808	-0.370573	-2.63263
H	-0.824602	1.34009	-2.11882
N	0.0624067	-2.40294	-0.781391
C	0.773216	-3.64486	-0.585031
H	-0.751015	-2.41466	-1.35347
H	0.27635	-4.47369	-1.13584
H	0.805445	-3.91229	0.496042
H	1.822	-3.55957	-0.95098
C	7.83939	-0.710683	0.887481
C	6.83015	0.0908098	0.159334
O	7.12976	1.14702	-0.380168
H	8.81874	-0.185666	0.8546
H	7.95041	-1.70846	0.413288
H	7.53499	-0.837381	1.94784
N	5.58965	-0.401827	0.130023
C	4.49136	0.285179	-0.502701
C	3.21186	-0.112301	0.208959
O	3.20954	-1.0161	1.04254
H	5.35229	-1.24231	0.608673
H	4.61494	1.35298	-0.371756
C	4.4092	-0.0704986	-2.00336
H	4.27185	-1.1646	-2.13797
H	3.57588	0.462993	-2.50484
H	5.3589	0.221801	-2.50233
N	2.08836	0.564734	-0.0999064
C	0.82492	0.260163	0.530263
H	2.11097	1.2956	-0.773996
H	0.0219772	0.925659	0.143439
H	0.893043	0.398002	1.63373
H	0.531177	-0.79599	0.33177
