44
  This energy is -5.1545 and Call times are: 48594
C	0.785378	-2.66694	-2.09364
C	0.52879	-2.0943	-0.752967
O	0.382127	-2.814	0.225259
H	0.794393	-3.77639	-2.02356
H	1.76984	-2.32291	-2.47471
H	-0.013014	-2.35802	-2.80091
N	0.465822	-0.76281	-0.678506
C	0.180526	-0.0619598	0.548676
C	-0.497608	1.24903	0.197973
O	-0.568004	1.62918	-0.969178
H	0.546516	-0.192009	-1.49063
H	-0.521143	-0.641081	1.13597
C	1.47502	0.195583	1.35067
H	2.19099	0.79863	0.75254
H	1.26696	0.722426	2.30444
H	1.95846	-0.776866	1.58938
N	-1.02322	1.97074	1.20737
C	-1.69236	3.22835	0.968912
H	-0.959928	1.64467	2.14479
H	-2.05506	3.66813	1.92404
H	-2.56734	3.08595	0.294081
H	-1.00025	3.95679	0.487766
C	4.24145	-2.25727	2.53813
C	4.91464	-1.03807	2.03662
O	5.43654	-0.241764	2.8047
H	4.29353	-2.27522	3.64845
H	4.74457	-3.16345	2.14005
H	3.17512	-2.26054	2.22829
N	4.91515	-0.8622	0.713196
C	5.49297	0.296828	0.0796872
C	4.74941	0.546016	-1.219
O	3.93972	-0.273584	-1.64837
H	4.45059	-1.49829	0.103747
H	5.33883	1.16306	0.710957
C	6.99869	0.0846955	-0.190572
H	7.1567	-0.797628	-0.84676
H	7.45818	0.975599	-0.665629
H	7.52143	-0.103774	0.772527
N	5.00308	1.69609	-1.87399
C	4.33909	2.02166	-3.11467
H	5.65854	2.34877	-1.50869
H	4.68165	3.00847	-3.49688
H	3.23533	2.06597	-2.9696
H	4.55473	1.25112	-3.88986
