44
  This energy is -2.3997 and Call times are: 101927
C	1.03379	2.37211	2.32746
C	0.725058	1.95475	0.941228
O	0.648441	2.77374	0.0358001
H	1.14843	3.47736	2.36137
H	1.98069	1.90202	2.66677
H	0.208982	2.0753	3.00915
N	0.535706	0.648128	0.743094
C	0.186095	0.0957776	-0.541913
C	-0.614058	-1.17209	-0.309893
O	-0.721365	-1.6517	0.817124
H	0.560976	-0.00144127	1.49761
H	-0.456738	0.79139	-1.06681
C	1.45092	-0.206973	-1.37486
H	2.1057	-0.928671	-0.841527
H	1.19451	-0.619858	-2.37201
H	2.02493	0.73333	-1.52547
N	-1.20508	-1.74276	-1.3781
C	-1.99109	-2.94803	-1.2529
H	-1.11019	-1.33763	-2.28139
H	-2.39315	-3.25984	-2.24202
H	-2.84916	-2.78724	-0.560695
H	-1.37189	-3.78076	-0.847567
C	4.94824	0.763676	3.2594
C	5.71177	1.04939	2.02387
O	6.27563	2.12286	1.86218
H	4.98189	1.65283	3.92583
H	5.39353	-0.10231	3.79282
H	3.88912	0.540148	3.01166
N	5.74477	0.0779817	1.10863
C	6.41104	0.224114	-0.161524
C	5.70653	-0.663618	-1.17008
O	4.84878	-1.46775	-0.810445
H	5.24674	-0.774854	1.23707
H	6.3075	1.24628	-0.503704
C	7.90245	-0.161133	-0.0497248
H	8.00912	-1.21302	0.291171
H	8.42971	-0.0395789	-1.0181
H	8.39605	0.49586	0.699316
N	6.04917	-0.531077	-2.46663
C	5.42842	-1.32938	-3.49792
H	6.74252	0.127962	-2.73867
H	5.84425	-1.07322	-4.49728
H	4.32828	-1.15491	-3.5209
H	5.60214	-2.41421	-3.31323
