44
  This energy is -8.324 and Call times are: 108345
C	-0.36685	2.18245	-2.68608
C	0.0499644	1.88318	-1.29761
O	0.719763	2.67797	-0.652551
H	0.0373768	3.17388	-2.98531
H	-1.47462	2.21017	-2.75556
H	0.02755	1.40956	-3.37904
N	-0.342565	0.707993	-0.800397
C	0.0213975	0.257992	0.520054
C	0.0589854	-1.25859	0.509268
O	-0.353034	-1.8919	-0.46072
H	-0.852697	0.0541329	-1.35185
H	1.02093	0.603786	0.752426
C	-0.986443	0.767174	1.57373
H	-2.0103	0.40398	1.34167
H	-0.709418	0.438864	2.59647
H	-1.00317	1.87886	1.55845
N	0.565708	-1.87922	1.59282
C	0.646882	-3.31923	1.67015
H	0.897949	-1.34955	2.3662
H	1.09251	-3.63654	2.63863
H	1.27821	-3.72191	0.845201
H	-0.365931	-3.77519	1.58386
C	6.55362	-2.1063	2.01308
C	5.26043	-1.5155	1.60104
O	4.19973	-1.96212	2.01562
H	6.36494	-2.96495	2.69351
H	7.16602	-1.35094	2.54894
H	7.10973	-2.46868	1.12287
N	5.32191	-0.481248	0.759062
C	4.14724	0.170594	0.235799
C	4.49225	0.746275	-1.12476
O	5.65413	0.759642	-1.52671
H	6.19103	-0.155124	0.398327
H	3.36705	-0.565322	0.0862531
C	3.66435	1.28574	1.18896
H	4.46068	2.04649	1.33439
H	2.75225	1.78603	0.803843
H	3.4252	0.842966	2.18047
N	3.48177	1.23087	-1.87317
C	3.71366	1.79322	-3.18319
H	2.5477	1.20758	-1.53252
H	2.75859	2.13631	-3.63856
H	4.17258	1.03641	-3.85989
H	4.40516	2.66442	-3.12018
