44
  This energy is -4.1271 and Call times are: 107951
C	-1.52013	2.2147	2.21292
C	-1.52142	1.40222	0.975572
O	-2.54723	1.23177	0.331313
H	-2.55098	2.57901	2.41416
H	-0.846342	3.08935	2.09572
H	-1.18166	1.60033	3.07378
N	-0.351078	0.872381	0.61232
C	-0.203361	0.0235825	-0.543656
C	0.951412	-0.926599	-0.288295
O	1.68297	-0.780399	0.689028
H	0.466695	0.986203	1.16924
H	-1.09604	-0.577967	-0.661555
C	0.0562966	0.862198	-1.8143
H	0.977799	1.47156	-1.69793
H	0.158053	0.220807	-2.71363
H	-0.797454	1.5557	-1.97714
N	1.13712	-1.93443	-1.16341
C	2.20676	-2.89097	-0.998828
H	0.532266	-2.03876	-1.94593
H	2.19282	-3.64158	-1.81956
H	2.1058	-3.43009	-0.029073
H	3.19639	-2.37941	-1.00803
C	4.65633	-2.5309	2.37654
C	4.77469	-1.10441	1.99932
O	4.62609	-0.216273	2.82729
H	4.40979	-2.60558	3.45797
H	5.61597	-3.05709	2.18953
H	3.84836	-3.01621	1.78942
N	5.04743	-0.850225	0.717369
C	5.15008	0.48818	0.191354
C	4.75824	0.451887	-1.27381
O	4.58582	-0.618717	-1.85328
H	5.12512	-1.5826	0.0469574
H	4.43893	1.1273	0.699703
C	6.58453	1.03668	0.35481
H	7.31328	0.38716	-0.175374
H	6.67308	2.07185	-0.0339246
H	6.85285	1.04677	1.43381
N	4.5995	1.6303	-1.90798
C	4.22233	1.69437	-3.30075
H	4.73945	2.48616	-1.42118
H	4.14234	2.7512	-3.6383
H	3.238	1.19877	-3.46432
H	4.97815	1.1792	-3.93675
