18
  This energy is -3.0188 and Call times are: 26533
C	0.022233	-0.577445	-0.975943
C	-0.0849028	-1.19463	0.235658
C	-0.0790765	-0.149197	1.20887
C	0.0311049	1.01455	0.506079
O	0.0941763	0.771787	-0.829623
H	0.0577152	-0.980757	-2.00129
H	-0.160454	-2.27746	0.425059
H	-0.149212	-0.2603	2.30287
H	0.0746938	2.06586	0.834868
C	3.96227	-1.15599	0.172688
C	5.03827	-0.530343	-0.420545
N	4.86443	0.813207	-0.454608
C	3.68505	1.02028	0.115325
N	3.1013	-0.135823	0.510606
H	3.7552	-2.2195	0.37166
H	5.93693	-1.02432	-0.824588
H	3.20154	1.99851	0.268651
H	2.17023	-0.235968	0.984253
