18
  This energy is -2.7226 and Call times are: 6445
C	-0.278846	-0.97144	-0.514733
C	-0.400045	-0.797802	0.832684
C	0.0425427	0.534328	1.09662
C	0.395131	1.05714	-0.112812
O	0.205321	0.151318	-1.10804
H	-0.50056	-1.83468	-1.16351
H	-0.764548	-1.53395	1.56707
H	0.0894224	1.03639	2.07633
H	0.789234	2.04743	-0.39435
C	3.5314	-0.573654	-0.682105
C	4.86659	-0.351984	-0.945282
N	5.4534	0.344359	0.0583485
C	4.48592	0.553885	0.940795
N	3.30787	0.0197219	0.54024
H	2.75053	-1.0943	-1.25892
H	5.41703	-0.682026	-1.84136
H	4.58555	1.09254	1.89691
H	2.39764	0.0515287	1.06151
