18
  This energy is -0.9151 and Call times are: 99370
C	-0.390998	0.953938	-0.472782
C	0.941551	0.711308	-0.312107
C	1.03326	-0.571435	0.309405
C	-0.251349	-0.999435	0.473661
O	-1.13417	-0.080332	0.00155122
H	-0.930925	1.81262	-0.904518
H	1.77619	1.36959	-0.602152
H	1.95314	-1.10545	0.597052
H	-0.663677	-1.92556	0.906699
C	6.53762	-0.0659296	-0.708246
C	5.65683	-1.08237	-0.404621
N	4.69156	-0.654925	0.445115
C	4.97246	0.621842	0.667796
N	6.07644	1.02448	-0.00503137
H	7.4302	-0.0421723	-1.35345
H	5.70054	-2.1165	-0.783465
H	4.40271	1.30806	1.31489
H	6.50031	1.9844	0.00675299
