18
  This energy is -0.6375 and Call times are: 52450
C	-0.302215	-0.122173	1.08634
C	-0.952494	-0.759992	0.0711093
C	-0.290149	-0.360251	-1.12957
C	0.70641	0.486555	-0.742057
O	0.713674	0.643377	0.607893
H	-0.463407	-0.130182	2.17685
H	-1.81233	-1.44341	0.158924
H	-0.534342	-0.672114	-2.15777
H	1.46681	1.03475	-1.32217
C	4.81043	0.532016	-0.350435
C	6.02315	0.525039	-1.00649
N	6.9475	-0.186983	-0.317197
C	6.31063	-0.620079	0.762369
N	5.01939	-0.213137	0.788543
H	3.84569	0.998934	-0.604987
H	6.24771	1.02101	-1.96484
H	6.7423	-1.23864	1.56566
H	4.31219	-0.424912	1.53438
