18
  This energy is -1.5016 and Call times are: 100004
C	-0.2112	0.970713	0.547276
C	1.04637	0.455006	0.433548
C	0.9066	-0.755671	-0.31133
C	-0.424045	-0.872916	-0.58703
O	-1.12163	0.172678	-0.0701928
H	-0.584824	1.88547	1.03602
H	1.97889	0.884101	0.834021
H	1.7092	-1.45189	-0.603215
H	-0.992147	-1.64269	-1.13471
C	4.91826	1.13592	-0.284224
C	4.6347	0.0936686	-1.14122
N	4.57046	-1.08403	-0.473829
C	4.81324	-0.773566	0.792383
N	5.02929	0.552851	0.958307
H	5.04468	2.21528	-0.464614
H	4.47532	0.170363	-2.22914
H	4.84472	-1.47868	1.63858
H	5.24104	1.04359	1.86141
