18
  This energy is -0.6818 and Call times are: 130074
C	-0.978182	-0.522303	0.238245
C	-0.67889	-0.0670581	-1.01218
C	0.618678	0.521787	-0.913709
C	0.997767	0.374394	0.388189
O	0.0345813	-0.26116	1.10607
H	-1.86638	-1.0416	0.634074
H	-1.30868	-0.138718	-1.91347
H	1.19497	0.997453	-1.72348
H	1.915	0.674418	0.921025
C	5.44416	-0.648424	-0.915431
C	4.78985	-0.485358	0.287251
N	5.48582	0.330922	1.11539
C	6.56777	0.672952	0.429082
N	6.58906	0.108133	-0.801413
H	5.18472	-1.22991	-1.81438
H	3.82807	-0.942073	0.572261
H	7.37635	1.33424	0.779978
H	7.33551	0.224389	-1.52981
