18
  This energy is -0.914 and Call times are: 66412
C	0.285979	0.788318	0.763657
C	0.636033	0.884084	-0.55113
C	0.102655	-0.280243	-1.18356
C	-0.526253	-0.98473	-0.199413
O	-0.424243	-0.346798	0.996267
H	0.478953	1.45276	1.62187
H	1.21206	1.69344	-1.02781
H	0.182916	-0.553118	-2.24807
H	-1.07542	-1.94034	-0.221159
C	4.65074	-0.902739	-0.0935758
C	4.34335	0.394845	0.257043
N	5.4519	1.1743	0.265779
C	6.44323	0.363358	-0.0781134
N	6.01138	-0.899768	-0.305294
H	4.0186	-1.79818	-0.203733
H	3.34156	0.782585	0.503865
H	7.50444	0.642534	-0.178669
H	6.60077	-1.72047	-0.588715
