18
  This energy is -1.7952 and Call times are: 26031
C	-0.12966	-0.859315	-0.728812
C	-0.56732	0.403137	-1.00275
C	-0.227299	1.19118	0.138949
C	0.388126	0.340729	1.00978
O	0.456366	-0.915649	0.496101
H	-0.17463	-1.79195	-1.31483
H	-1.07834	0.745134	-1.91708
H	-0.422268	2.26566	0.285825
H	0.816262	0.504581	2.01233
C	4.09084	-0.648397	0.982136
C	4.76181	-0.929917	-0.189054
N	4.55038	0.0345688	-1.11727
C	3.75128	0.911097	-0.524168
N	3.44551	0.544298	0.742935
H	4.02897	-1.19419	1.93703
H	5.39468	-1.81168	-0.380933
H	3.35997	1.83875	-0.972014
H	2.83345	1.06858	1.41508
