44
  This energy is -7.3209 and Call times are: 32049
C	-1.65518	0.444298	-3.02914
C	-1.12712	0.957599	-1.74508
O	-1.07663	2.15819	-1.51607
H	-1.94545	1.30088	-3.67558
H	-2.54899	-0.189382	-2.84943
H	-0.877964	-0.152725	-3.55125
N	-0.712963	0.0426019	-0.86551
C	-0.135214	0.389829	0.408931
C	0.822401	-0.715952	0.811144
O	0.87339	-1.76709	0.175362
H	-0.722379	-0.929328	-1.08261
H	0.446235	1.29712	0.302259
C	-1.23223	0.572487	1.48058
H	-1.82226	-0.361392	1.59791
H	-0.800979	0.853642	2.46318
H	-1.92587	1.38087	1.16164
N	1.61485	-0.499004	1.87931
C	2.56105	-1.49169	2.3326
H	1.56201	0.359524	2.37852
H	3.11832	-1.12608	3.22311
H	3.29765	-1.72728	1.53061
H	2.03812	-2.43571	2.60921
C	7.34306	1.54732	2.21564
C	5.99825	1.37119	1.62266
O	5.01222	1.89412	2.12336
H	7.26229	2.17609	3.12887
H	8.01773	2.05041	1.49144
H	7.77026	0.561146	2.49496
N	5.92826	0.615168	0.524512
C	4.68426	0.317471	-0.140609
C	4.8257	-1.02728	-0.828507
O	5.91818	-1.587	-0.898614
H	6.73361	0.162715	0.152285
H	3.89842	0.220822	0.59813
C	4.33067	1.41612	-1.16686
H	5.13165	1.50843	-1.93103
H	3.36782	1.2054	-1.67582
H	4.23999	2.3925	-0.642653
N	3.71384	-1.58381	-1.34815
C	3.75066	-2.86379	-2.01634
H	2.83819	-1.11758	-1.27791
H	2.73689	-3.15044	-2.37319
H	4.11623	-3.65737	-1.32505
H	4.43498	-2.82908	-2.89476
