44
  This energy is 0.106 and Call times are: 37743
C	0.504365	-2.00972	2.7963
C	0.0746667	-1.81245	1.3936
O	-0.162549	-2.76545	0.664259
H	0.57451	-3.09858	3.00927
H	-0.233336	-1.55462	3.49015
H	1.50024	-1.54662	2.9602
N	-0.0342813	-0.548249	0.978513
C	-0.400257	-0.198363	-0.371377
C	0.229946	1.14194	-0.699986
O	0.778235	1.81118	0.173634
H	0.201773	0.21617	1.57165
H	0.0169773	-0.927251	-1.05495
C	-1.93528	-0.12742	-0.526038
H	-2.36272	0.62773	0.16756
H	-2.2301	0.127606	-1.56458
H	-2.37574	-1.1165	-0.272937
N	0.173049	1.56289	-1.97889
C	0.750208	2.82265	-2.38642
H	-0.271268	1.00552	-2.67243
H	0.600753	2.98955	-3.47592
H	1.84416	2.83984	-2.17605
H	0.279129	3.66777	-1.83416
C	-0.0994276	-1.66726	0.962459
C	0.691791	-0.430083	0.776646
O	0.172484	0.673507	0.870576
H	-1.15903	-1.39865	1.16482
H	0.294715	-2.248	1.82277
H	-0.0557672	-2.29087	0.0447031
N	1.98836	-0.590516	0.501761
C	2.87674	0.517355	0.252843
C	3.98075	0.0398564	-0.671664
O	4.10219	-1.15294	-0.944031
H	2.38786	-1.49568	0.388042
H	2.33636	1.29879	-0.266741
C	3.47087	1.05547	1.57295
H	4.03423	0.256991	2.10124
H	4.14593	1.91771	1.39585
H	2.64485	1.39178	2.23698
N	4.81138	0.968384	-1.18538
C	5.88772	0.608324	-2.0787
H	4.69469	1.92916	-0.95655
H	6.457	1.51094	-2.39245
H	5.48987	0.109836	-2.99221
H	6.59302	-0.095705	-1.58066
