44
  This energy is -3.8546 and Call times are: 37471
C	1.88734	2.92377	-0.0470956
C	0.61504	2.19718	0.163766
O	-0.345708	2.74242	0.6892
H	1.79115	3.95654	0.352913
H	2.12166	2.97857	-1.13099
H	2.71502	2.40826	0.484211
N	0.581767	0.927276	-0.246873
C	-0.571069	0.07961	-0.0708269
C	-0.0909276	-1.35545	0.0369356
O	1.08176	-1.64602	-0.191307
H	1.38502	0.485055	-0.635568
H	-1.05768	0.328011	0.864125
C	-1.55494	0.234215	-1.25123
H	-1.05924	-0.0306443	-2.20944
H	-2.45342	-0.403118	-1.12061
H	-1.88693	1.29343	-1.31596
N	-0.991458	-2.29064	0.398185
C	-0.624819	-3.68128	0.531891
H	-1.93482	-2.03553	0.582724
H	-1.50307	-4.29196	0.836792
H	0.172087	-3.80522	1.30056
H	-0.23818	-4.08042	-0.433687
C	3.88663	-2.94428	1.20265
C	4.62594	-2.17904	0.173582
O	5.18818	-2.74492	-0.753824
H	3.96475	-4.0305	0.979345
H	2.81523	-2.65298	1.20002
H	4.31933	-2.75186	2.20705
N	4.64316	-0.852043	0.319088
C	5.35675	0.0226619	-0.577702
C	5.76874	1.26032	0.196919
O	5.3478	1.46031	1.33469
H	4.2154	-0.408982	1.10176
H	6.26383	-0.467668	-0.908456
C	4.47777	0.408711	-1.7875
H	3.55201	0.921188	-1.44931
H	5.0208	1.07099	-2.4925
H	4.18156	-0.51272	-2.33482
N	6.61443	2.1209	-0.403274
C	7.06574	3.3227	0.25866
H	6.94741	1.93983	-1.32273
H	7.75548	3.89781	-0.397653
H	7.60527	3.07315	1.20095
H	6.20186	3.97651	0.518268
