44
  This energy is -7.7699 and Call times are: 17949
C	-1.01768	-0.190023	3.32481
C	-0.746863	-0.81159	2.00894
O	-0.792383	-2.0251	1.86121
H	-1.23995	-0.986097	4.06826
H	-1.89263	0.489879	3.25394
H	-0.130793	0.383811	3.66698
N	-0.448339	0.0218372	1.00961
C	-0.160931	-0.432333	-0.327531
C	0.618472	0.66025	-1.03324
O	0.680969	1.79351	-0.560332
H	-0.385868	1.00646	1.14946
H	0.474662	-1.30705	-0.273033
C	-1.45807	-0.746959	-1.10571
H	-2.10804	0.152371	-1.15912
H	-1.24041	-1.09708	-2.13567
H	-2.0204	-1.54783	-0.577951
N	1.25232	0.336498	-2.17754
C	2.02834	1.30805	-2.91244
H	1.19554	-0.587863	-2.54026
H	2.4692	0.850087	-3.82521
H	2.85807	1.70494	-2.28373
H	1.39019	2.16647	-3.22397
C	4.7635	-3.33149	-0.963863
C	3.963	-2.19064	-0.464987
O	2.74988	-2.27838	-0.33404
H	4.08843	-4.18881	-1.17633
H	5.50703	-3.64048	-0.199334
H	5.29108	-3.04907	-1.89919
N	4.63659	-1.07458	-0.176843
C	3.99738	0.118426	0.318112
C	4.91892	1.29016	0.0405367
O	6.09106	1.10543	-0.281618
H	5.621	-1.00617	-0.315397
H	3.08131	0.282162	-0.235131
C	3.71014	0.0156224	1.83272
H	4.65199	-0.153005	2.39717
H	3.21783	0.932502	2.21709
H	3.03511	-0.847097	2.02295
N	4.40042	2.53013	0.138705
C	5.19909	3.70569	-0.118881
H	3.4477	2.65861	0.393748
H	4.59409	4.62935	0.0156144
H	5.59221	3.69292	-1.16125
H	6.06777	3.75099	0.577196
