44
  This energy is -7.0549 and Call times are: 351
C	-1.38511	-2.92021	-1.29613
C	-0.275907	-1.9473	-1.17653
O	0.816807	-2.16879	-1.67993
H	-1.0383	-3.80315	-1.87579
H	-2.24435	-2.45758	-1.82575
H	-1.70972	-3.25646	-0.288901
N	-0.536562	-0.832278	-0.490119
C	0.440505	0.207588	-0.288011
C	0.00973592	1.02425	0.914793
O	-1.12569	0.916049	1.37406
H	-1.42184	-0.676652	-0.0600118
H	1.39446	-0.246905	-0.0524573
C	0.560344	1.11628	-1.53181
H	-0.420227	1.58036	-1.77101
H	1.31195	1.91797	-1.37966
H	0.875317	0.505993	-2.40616
N	0.919939	1.84942	1.46854
C	0.603796	2.65713	2.62345
H	1.83575	1.91758	1.08661
H	1.48159	3.2688	2.92775
H	0.309584	2.01383	3.48417
H	-0.243477	3.34566	2.40156
C	3.54806	-2.95814	-0.358514
C	4.82397	-2.2187	-0.230191
O	5.88735	-2.80961	-0.101617
H	3.74998	-4.05026	-0.309797
H	3.06681	-2.72474	-1.33153
H	2.86087	-2.68244	0.468954
N	4.74253	-0.886401	-0.257047
C	5.8963	-0.0303405	-0.143945
C	5.41961	1.33704	0.305813
O	4.22651	1.63149	0.265307
H	3.86716	-0.416404	-0.333011
H	6.54982	-0.420518	0.625958
C	6.64561	0.0845598	-1.49022
H	5.97205	0.484512	-2.27792
H	7.53465	0.742889	-1.40667
H	6.98856	-0.923759	-1.80931
N	6.34495	2.20073	0.768167
C	5.98289	3.52076	1.22928
H	7.30456	1.94114	0.799716
H	6.883	4.07957	1.56809
H	5.26853	3.45689	2.08183
H	5.49563	4.10221	0.413389
