44
  This energy is -10.3696 and Call times are: 19358
C	-1.71635	-2.98032	-0.54588
C	-0.462012	-2.20205	-0.435708
O	0.629208	-2.75453	-0.45787
H	-1.47139	-4.06094	-0.635926
H	-2.28473	-2.6645	-1.44589
H	-2.34223	-2.82782	0.358533
N	-0.593941	-0.879827	-0.306498
C	0.533243	0.010354	-0.188763
C	0.0458875	1.29758	0.447459
O	-1.15641	1.54019	0.533763
H	-1.48915	-0.444603	-0.260502
H	1.26208	-0.43122	0.478979
C	1.16376	0.305029	-1.56816
H	0.413134	0.757337	-2.25086
H	2.03207	0.99005	-1.48115
H	1.51566	-0.645941	-2.0242
N	0.974227	2.14695	0.929903
C	0.603705	3.39113	1.56309
H	1.94198	1.92932	0.856914
H	1.5078	3.95004	1.89092
H	-0.0347735	3.20246	2.45639
H	0.0296528	4.03519	0.858229
C	3.67777	-3.1985	0.112794
C	4.82529	-2.2799	-0.0621057
O	5.96742	-2.70646	-0.162476
H	4.0469	-4.24683	0.137159
H	2.96657	-3.08752	-0.732606
H	3.1541	-2.97958	1.06715
N	4.54108	-0.975916	-0.0969215
C	5.55	0.0398332	-0.261717
C	4.98327	1.34769	0.255533
O	3.7797	1.46748	0.476681
H	3.60987	-0.639444	0.01515
H	6.40657	-0.212455	0.350423
C	5.9619	0.188368	-1.7434
H	5.08066	0.446535	-2.36861
H	6.73874	0.96957	-1.87386
H	6.3743	-0.776613	-2.11067
N	5.84689	2.3571	0.481971
C	5.40028	3.63501	0.985626
H	6.8181	2.23819	0.303557
H	6.25835	4.33292	1.10345
H	4.9068	3.51574	1.97734
H	4.66533	4.0975	0.287676
