44
  This energy is -3.529 and Call times are: 23934
C	-1.93643	-0.72902	2.80087
C	-1.45215	0.206511	1.76094
O	-1.93126	1.32608	1.64462
H	-2.74862	-0.242253	3.38335
H	-1.10875	-0.995098	3.4915
H	-2.33548	-1.65193	2.32976
N	-0.478561	-0.24311	0.965753
C	0.0960994	0.549998	-0.0913993
C	0.750933	-0.395297	-1.07976
O	0.951523	-1.57219	-0.785617
H	-0.116733	-1.16756	1.05179
H	-0.697561	1.07142	-0.611295
C	1.13824	1.54951	0.458169
H	1.95063	1.01126	0.99148
H	1.5826	2.16193	-0.353169
H	0.646352	2.2355	1.18178
N	1.08104	0.096331	-2.29027
C	1.69772	-0.732316	-3.29983
H	0.904049	1.04968	-2.51172
H	1.89364	-0.145623	-4.22431
H	1.03628	-1.58954	-3.56234
H	2.66625	-1.14317	-2.93334
C	7.3417	-0.368264	3.10059
C	6.80694	-0.926776	1.83833
O	6.96996	-2.10399	1.54836
H	7.87245	-1.16862	3.66059
H	6.51257	0.0203836	3.72853
H	8.05668	0.453029	2.88328
N	6.1506	-0.0769801	1.04497
C	5.57289	-0.471482	-0.214972
C	5.38876	0.777678	-1.05458
O	5.47368	1.89437	-0.547022
H	6.04966	0.88641	1.27869
H	6.26932	-1.11733	-0.734533
C	4.21535	-1.18118	-0.0136782
H	3.50354	-0.516039	0.520202
H	3.7678	-1.48643	-0.981822
H	4.36362	-2.09382	0.603778
N	5.15242	0.616506	-2.37145
C	4.97575	1.7481	-3.25149
H	5.09439	-0.29527	-2.76456
H	4.78984	1.40974	-4.29466
H	5.88398	2.39335	-3.24894
H	4.1103	2.36887	-2.92465
