44
  This energy is -3.7577 and Call times are: 25334
C	-1.61745	0.334967	-3.06558
C	-0.952964	-0.484428	-2.02719
O	-0.938185	-1.70557	-2.09853
H	-2.05778	-0.334802	-3.8359
H	-0.879843	1.00682	-3.55279
H	-2.42826	0.943379	-2.61242
N	-0.384442	0.182048	-1.01974
C	0.299759	-0.475415	0.0648996
C	0.348053	0.486164	1.23634
O	0.0863113	1.67769	1.08272
H	-0.428492	1.17561	-0.957831
H	-0.276014	-1.33928	0.371965
C	1.7316	-0.889468	-0.341934
H	2.31926	-0.000931151	-0.657007
H	2.26123	-1.39613	0.49087
H	1.68253	-1.59282	-1.20161
N	0.664913	-0.0171789	2.44557
C	0.723941	0.820373	3.62082
H	0.866457	-0.985458	2.55068
H	1.00276	0.222348	4.51629
H	-0.263885	1.29862	3.81244
H	1.47929	1.62875	3.48986
C	5.18029	3.42837	-0.586193
C	5.36608	2.03578	-1.05245
O	5.44929	1.7736	-2.24443
H	5.13137	4.10668	-1.4656
H	6.03292	3.73371	0.05615
H	4.23451	3.51664	-0.0111637
N	5.43017	1.09693	-0.105442
C	5.60889	-0.301892	-0.402401
C	5.12316	-1.09779	0.793364
O	4.91324	-0.546467	1.87216
H	5.33186	1.31978	0.860793
H	4.98546	-0.564606	-1.24762
C	7.09035	-0.630435	-0.692999
H	7.72714	-0.359051	0.17589
H	7.2315	-1.70669	-0.922197
H	7.4344	-0.0402573	-1.57019
N	4.91165	-2.41756	0.621677
C	4.43803	-3.25351	1.70013
H	5.08055	-2.84379	-0.260953
H	4.32864	-4.30746	1.3618
H	3.44762	-2.89846	2.06656
H	5.15077	-3.23214	2.55613
