44
  This energy is -2.7368 and Call times are: 2017
C	-2.39955	-2.15331	-1.31588
C	-1.02567	-1.86718	-0.844956
O	-0.196037	-2.75943	-0.734929
H	-2.49935	-3.24195	-1.51778
H	-2.6074	-1.59368	-2.25206
H	-3.13861	-1.86247	-0.539895
N	-0.754103	-0.594582	-0.546446
C	0.537148	-0.160401	-0.0763575
C	0.351655	1.16413	0.638107
O	-0.6942	1.80009	0.521651
H	-1.44705	0.118445	-0.612479
H	0.906836	-0.875617	0.647432
C	1.53575	0.00118412	-1.24418
H	1.15304	0.735098	-1.98513
H	2.53108	0.335258	-0.885728
H	1.662	-0.97558	-1.76006
N	1.36127	1.6014	1.41623
C	1.26991	2.84551	2.14426
H	2.19677	1.06886	1.50319
H	2.20084	3.03112	2.72405
H	0.412741	2.82243	2.85557
H	1.11581	3.69942	1.4455
C	4.58872	-2.30483	-2.12836
C	5.48704	-1.96842	-1.00095
O	5.98637	-2.84354	-0.307173
H	4.47626	-3.40901	-2.19151
H	5.0165	-1.93204	-3.08275
H	3.58823	-1.85016	-1.96953
N	5.71028	-0.669538	-0.787808
C	6.56101	-0.185963	0.270133
C	6.1844	1.25624	0.548424
O	5.4779	1.88436	-0.237812
H	5.27449	0.0348176	-1.3418
H	6.36395	-0.756668	1.16876
C	8.0529	-0.279557	-0.120544
H	8.25139	0.306494	-1.04318
H	8.71078	0.0918448	0.691883
H	8.31586	-1.3407	-0.322962
N	6.63273	1.8098	1.69235
C	6.31492	3.17334	2.04723
H	7.19729	1.28283	2.31909
H	6.77662	3.4437	3.02241
H	5.21251	3.31066	2.13135
H	6.69267	3.87936	1.27262
