44
  This energy is -1.2699 and Call times are: 11524
C	-2.72368	1.67908	-1.37419
C	-1.26887	1.42795	-1.26619
O	-0.477198	1.95466	-2.03582
H	-2.91487	2.37151	-2.22263
H	-3.10223	2.14322	-0.43926
H	-3.26394	0.726717	-1.55877
N	-0.8808	0.598412	-0.294784
C	0.500075	0.256753	-0.0639535
C	0.534337	-1.04412	0.714372
O	-0.481483	-1.48274	1.25062
H	-1.53795	0.152818	0.307322
H	0.983528	0.082756	-1.01688
C	1.23	1.36699	0.724523
H	0.731015	1.54336	1.70126
H	2.29355	1.10722	0.903871
H	1.19683	2.31486	0.144366
N	1.707	-1.70527	0.77552
C	1.83229	-2.95768	1.484
H	2.51607	-1.33754	0.328966
H	2.87384	-3.3429	1.42053
H	1.14837	-3.72366	1.05183
H	1.57093	-2.82885	2.5593
C	6.58061	3.45815	-0.307779
C	6.78965	2.11218	-0.887323
O	6.85031	1.94721	-2.09794
H	6.49338	4.2022	-1.12915
H	7.44077	3.73459	0.337623
H	5.64722	3.4754	0.29341
N	6.9002	1.10358	-0.0196431
C	7.10645	-0.262151	-0.43081
C	6.67001	-1.16266	0.708419
O	6.47275	-0.704009	1.83206
H	6.81994	1.24677	0.963206
H	6.46936	-0.473952	-1.28012
C	8.58812	-0.526929	-0.7796
H	9.23893	-0.307998	0.09369
H	8.75045	-1.57757	-1.09675
H	8.89587	0.139636	-1.61454
N	6.48736	-2.46995	0.437091
C	6.06115	-3.40079	1.45595
H	6.64527	-2.82052	-0.480187
H	5.96987	-4.4273	1.03741
H	5.07142	-3.10243	1.87147
H	6.79378	-3.42795	2.29482
