44
  This energy is -2.1123 and Call times are: 15343
C	-0.455664	2.12946	2.71734
C	-0.108211	0.811128	2.14072
O	0.332295	-0.0895633	2.84158
H	-0.242991	2.12066	3.80846
H	-1.53448	2.3421	2.56321
H	0.150117	2.928	2.23952
N	-0.297021	0.670298	0.826608
C	-0.00585461	-0.552481	0.121726
C	0.167722	-0.214091	-1.34613
O	-0.186657	0.878218	-1.78557
H	-0.629029	1.42092	0.261562
H	0.934726	-0.950325	0.481033
C	-1.13979	-1.58701	0.297953
H	-2.10336	-1.17535	-0.0710479
H	-0.918756	-2.52981	-0.2434
H	-1.25769	-1.82555	1.37746
N	0.740929	-1.14172	-2.13793
C	0.957809	-0.903592	-3.54592
H	1.02741	-2.01684	-1.762
H	1.4386	-1.78517	-4.02436
H	1.61793	-0.0190283	-3.69766
H	-0.00825648	-0.706467	-4.06461
C	3.84197	-0.967036	0.497914
C	4.89735	-0.29952	-0.296943
O	4.66741	0.131057	-1.41865
H	2.89954	-0.99293	-0.0911667
H	3.66152	-0.408095	1.44017
H	4.14436	-2.00809	0.73816
N	6.09955	-0.203437	0.275638
C	7.22626	0.419352	-0.372042
C	8.48846	-0.0949418	0.292489
O	8.43459	-0.696808	1.36332
H	6.28191	-0.584072	1.1783
H	7.2511	0.109977	-1.40922
C	7.15768	1.95897	-0.262485
H	7.13166	2.27282	0.802847
H	8.02366	2.44172	-0.760285
H	6.22814	2.32307	-0.751902
N	9.65858	0.112902	-0.342824
C	10.9104	-0.351438	0.208087
H	9.68057	0.595799	-1.21205
H	11.758	-0.082619	-0.460226
H	10.8988	-1.45865	0.331302
H	11.0934	0.105275	1.20763
