44
  This energy is 0.1919 and Call times are: 16751
C	3.42459	-0.506914	0.375924
C	2.10122	-0.90135	-0.157283
O	1.98871	-1.82648	-0.949733
H	4.20765	-1.16291	-0.0626521
H	3.44042	-0.617616	1.4806
H	3.64694	0.547254	0.107157
N	1.05432	-0.191268	0.269498
C	-0.296092	-0.455128	-0.158982
C	-1.11389	0.79941	0.0788714
O	-0.6786	1.70971	0.781513
H	1.16246	0.578731	0.892669
H	-0.295545	-0.650459	-1.22384
C	-0.9095	-1.64374	0.614353
H	-0.907868	-1.44027	1.70647
H	-1.94924	-1.84973	0.286797
H	-0.300704	-2.55619	0.432807
N	-2.31646	0.885166	-0.523186
C	-3.15996	2.04681	-0.364217
H	-2.64798	0.140958	-1.0937
H	-4.1069	1.9263	-0.93521
H	-2.64224	2.96173	-0.733177
H	-3.41502	2.20348	0.708899
C	7.66107	1.19407	-0.623971
C	6.18845	1.30582	-0.724508
O	5.65976	2.31327	-1.17399
H	8.12702	2.13065	-1.00023
H	8.02275	0.34154	-1.23651
H	7.96221	1.04268	0.43402
N	5.48343	0.256672	-0.294878
C	4.04328	0.215986	-0.328653
C	3.58309	-0.827412	0.670742
O	4.37867	-1.6338	1.14891
H	5.92483	-0.546548	0.0961879
H	3.65653	1.17414	-0.00547116
C	3.52343	-0.135085	-1.74061
H	3.92266	-1.1183	-2.06929
H	2.41489	-0.167113	-1.77022
H	3.86827	0.636057	-2.4635
N	2.28351	-0.821258	1.02718
C	1.75712	-1.76946	1.98112
H	1.65698	-0.156104	0.634424
H	0.668806	-1.60391	2.14055
H	2.27455	-1.66781	2.96254
H	1.90389	-2.81309	1.6199
