44
  This energy is -1.736 and Call times are: 2185
C	-0.00269126	3.37603	-0.853536
C	0.698819	2.09516	-0.611774
O	1.89066	1.97048	-0.857679
H	0.715677	4.11538	-1.26968
H	-0.414933	3.77204	0.0983328
H	-0.828703	3.22883	-1.58085
N	-0.0405324	1.09744	-0.121589
C	0.499516	-0.207325	0.166092
C	-0.652633	-1.19273	0.193611
O	-1.81617	-0.798222	0.24238
H	-1.01693	1.2028	0.0471745
H	1.16259	-0.498908	-0.63851
C	1.24366	-0.222076	1.52003
H	0.560662	0.0781851	2.34311
H	1.66089	-1.22521	1.74459
H	2.08444	0.504675	1.48736
N	-0.353646	-2.50567	0.140644
C	-1.38527	-3.51654	0.149779
H	0.593808	-2.8047	0.0943203
H	-0.938995	-4.53429	0.102084
H	-2.06599	-3.39108	-0.723214
H	-1.99735	-3.44513	1.07792
C	6.14473	1.32439	-3.21044
C	6.37609	1.47261	-1.7559
O	6.74467	2.53725	-1.27928
H	6.364	2.28916	-3.7174
H	5.08644	1.04945	-3.40343
H	6.8118	0.540141	-3.62627
N	6.16639	0.386501	-1.00839
C	6.34873	0.374344	0.421099
C	6.53919	-1.06626	0.854253
O	6.27443	-1.9926	0.0902938
H	5.89434	-0.48292	-1.41216
H	7.25526	0.91369	0.664777
C	5.13335	0.991549	1.14845
H	4.20499	0.436234	0.895687
H	5.2705	0.983917	2.24931
H	5.00386	2.04634	0.821655
N	7.02667	-1.28794	2.09087
C	7.25232	-2.62608	2.58547
H	7.24152	-0.524853	2.69151
H	7.6539	-2.59954	3.62243
H	7.98317	-3.16538	1.94029
H	6.30237	-3.2081	2.59206
