44
  This energy is -6.5388 and Call times are: 20552
C	-0.362472	-1.04847	3.30083
C	-0.029536	-1.30756	1.88194
O	0.443697	-2.3789	1.52871
H	-0.107251	-1.9444	3.90748
H	-1.44781	-0.839767	3.40717
H	0.219124	-0.181195	3.67836
N	-0.26869	-0.31186	1.02535
C	0.00238764	-0.413246	-0.386405
C	0.116308	0.993355	-0.941143
O	-0.261852	1.96098	-0.283475
H	-0.627255	0.566554	1.32991
H	0.958784	-0.900722	-0.526932
C	-1.11725	-1.18467	-1.12019
H	-2.09709	-0.682205	-0.97336
H	-0.911624	-1.26472	-2.20742
H	-1.19135	-2.21293	-0.703867
N	0.663948	1.14075	-2.16359
C	0.824111	2.44283	-2.76782
H	0.970416	0.345956	-2.67702
H	1.29137	2.35492	-3.7734
H	1.47221	3.09222	-2.13577
H	-0.162718	2.94701	-2.88251
C	2.37534	1.69482	2.35572
C	3.66089	1.43362	1.6699
O	4.64063	2.1374	1.87309
H	2.48581	2.58075	3.01813
H	2.08608	0.818417	2.97302
H	1.57858	1.9006	1.61021
N	3.68255	0.401152	0.823792
C	4.8592	0.0221765	0.083044
C	4.41347	-0.798643	-1.11145
O	3.26959	-1.24499	-1.17585
H	2.86972	-0.146779	0.644865
H	5.34107	0.915668	-0.293183
C	5.83426	-0.797831	0.957087
H	5.33646	-1.71337	1.34192
H	6.74145	-1.09116	0.389861
H	6.15238	-0.185964	1.82919
N	5.30644	-0.998728	-2.10068
C	4.96795	-1.75757	-3.2821
H	6.22497	-0.623265	-2.03319
H	5.83506	-1.81142	-3.97671
H	4.11546	-1.285	-3.82171
H	4.67124	-2.79646	-3.01035
