44
  This energy is -6.5524 and Call times are: 16049
C	1.77062	1.40702	2.64789
C	0.579774	1.33307	1.77175
O	-0.418925	2.00022	2.00415
H	1.57278	2.12058	3.47709
H	2.64939	1.76258	2.06983
H	1.99164	0.407764	3.07868
N	0.660075	0.500789	0.730968
C	-0.416	0.320494	-0.210512
C	-0.208493	-1.01091	-0.905879
O	0.864823	-1.60454	-0.819692
H	1.46831	-0.0590564	0.568919
H	-1.35192	0.266443	0.33097
C	-0.45124	1.46298	-1.25003
H	0.51068	1.51599	-1.80322
H	-1.27873	1.32736	-1.97642
H	-0.602543	2.43287	-0.727956
N	-1.24543	-1.52323	-1.59747
C	-1.14447	-2.79105	-2.28203
H	-2.10814	-1.03103	-1.64942
H	-2.10048	-3.03887	-2.79377
H	-0.910019	-3.60856	-1.56234
H	-0.334772	-2.76149	-3.04669
C	3.71117	3.39844	-0.175775
C	4.47313	2.20768	-0.614765
O	5.2311	2.25983	-1.57354
H	3.95035	4.25431	-0.843715
H	3.98764	3.66706	0.865487
H	2.62068	3.19576	-0.227776
N	4.27995	1.08829	0.0866721
C	4.9496	-0.150758	-0.218538
C	4.14281	-1.27942	0.393379
O	3.26453	-1.04692	1.22187
H	3.63776	1.05109	0.847688
H	4.95357	-0.293507	-1.2917
C	6.39013	-0.163993	0.339866
H	6.38238	-0.0166283	1.44093
H	6.9087	-1.11657	0.106509
H	6.97035	0.668114	-0.115199
N	4.40961	-2.53401	-0.0199291
C	3.68435	-3.67056	0.498171
H	5.11929	-2.70089	-0.696488
H	4.05057	-4.61421	0.0370215
H	2.59579	-3.574	0.281461
H	3.81105	-3.7476	1.60234
