44
  This energy is -0.7642 and Call times are: 7710
C	1.17244	3.27885	0.0257626
C	0.419856	2.1608	0.637957
O	-0.0322989	2.24823	1.77127
H	1.23404	4.12013	0.749857
H	0.655279	3.63128	-0.891387
H	2.20137	2.9514	-0.233126
N	0.272644	1.06503	-0.110367
C	-0.434738	-0.104389	0.346688
C	0.0265519	-1.28361	-0.487504
O	0.664434	-1.1091	-1.52408
H	0.670723	0.995193	-1.02119
H	-0.160618	-0.301808	1.37526
C	-1.96351	0.0750594	0.213338
H	-2.24113	0.278091	-0.842985
H	-2.51126	-0.823496	0.564532
H	-2.28861	0.942584	0.828038
N	-0.268912	-2.51979	-0.0396539
C	0.139503	-3.70252	-0.761132
H	-0.779798	-2.64036	0.805148
H	-0.199173	-4.62143	-0.233725
H	1.2489	-3.74148	-0.855769
H	-0.294875	-3.70672	-1.78704
C	5.23951	-1.01087	3.32211
C	4.9348	-0.0709673	2.21987
O	4.13815	0.844904	2.3716
H	4.64231	-0.732774	4.21759
H	6.31832	-0.961162	3.58004
H	4.97846	-2.04813	3.02396
N	5.56955	-0.285454	1.06512
C	5.37792	0.54369	-0.0979042
C	5.80824	-0.253067	-1.31414
O	6.45854	-1.28907	-1.18906
H	6.19425	-1.05247	0.945213
H	4.32293	0.762248	-0.204252
C	6.1992	1.84868	0.000129242
H	7.28093	1.62076	0.109812
H	6.05385	2.48954	-0.893708
H	5.87533	2.42257	0.89562
N	5.43382	0.203938	-2.52532
C	5.78739	-0.494765	-3.73899
H	4.9017	1.04041	-2.60527
H	5.38964	0.0389977	-4.63014
H	5.36961	-1.52756	-3.73368
H	6.89423	-0.570587	-3.84068
