44
  This energy is -3.2785 and Call times are: 26502
C	-0.118828	1.94058	-2.88897
C	0.047916	1.7939	-1.42545
O	0.3914	2.73987	-0.730001
H	0.119026	2.98603	-3.18278
H	-1.16663	1.71532	-3.17911
H	0.568664	1.25174	-3.42358
N	-0.1905	0.581444	-0.920019
C	-0.0710552	0.282905	0.484771
C	0.105372	-1.21618	0.629147
O	-0.122262	-1.96976	-0.315383
H	-0.441444	-0.188305	-1.50092
H	0.821964	0.757896	0.870742
C	-1.3194	0.748696	1.26694
H	-2.23377	0.259988	0.867936
H	-1.23069	0.520499	2.34899
H	-1.4382	1.84818	1.15223
N	0.538891	-1.68308	1.81661
C	0.747402	-3.09424	2.04316
H	0.724423	-1.05656	2.56647
H	1.10298	-3.27758	3.08104
H	1.50781	-3.49756	1.3358
H	-0.199823	-3.66082	1.89173
C	3.60179	-0.591092	3.17669
C	3.76122	0.254824	1.97245
O	3.11606	1.28478	1.833
H	2.84261	-0.134568	3.84833
H	4.56594	-0.665514	3.72231
H	3.26132	-1.60781	2.88805
N	4.63554	-0.173029	1.05874
C	4.90017	0.54129	-0.164597
C	5.50024	-0.437466	-1.15515
O	5.91291	-1.53446	-0.783472
H	5.13361	-1.02882	1.1705
H	3.96278	0.893036	-0.576482
C	5.87023	1.72049	0.0711606
H	6.83058	1.35613	0.494357
H	6.07604	2.27278	-0.868733
H	5.41962	2.42957	0.799371
N	5.54244	-0.0688793	-2.45067
C	6.08517	-0.940078	-3.46685
H	5.19694	0.820158	-2.73258
H	6.03284	-0.457351	-4.46759
H	5.51591	-1.89684	-3.50905
H	7.15077	-1.18166	-3.2493
