44
  This energy is -8.6361 and Call times are: 19008
C	0.761134	0.605112	3.34375
C	0.832065	-0.229227	2.12307
O	1.54183	-1.22455	2.07756
H	1.42948	0.175744	4.12145
H	-0.27817	0.624556	3.73399
H	1.09067	1.64135	3.1189
N	0.0888911	0.169596	1.08818
C	0.0523653	-0.538115	-0.166665
C	-0.435943	0.42533	-1.23089
O	-0.955492	1.49533	-0.919448
H	-0.462719	0.998506	1.12782
H	1.05853	-0.837842	-0.431001
C	-0.882117	-1.76629	-0.092792
H	-1.91331	-1.45525	0.179256
H	-0.912467	-2.31361	-1.05731
H	-0.51431	-2.46367	0.691121
N	-0.259175	0.0747576	-2.52001
C	-0.681566	0.933944	-3.60148
H	0.169813	-0.792165	-2.75163
H	-0.451287	0.469495	-4.58561
H	-0.161296	1.91765	-3.54787
H	-1.77872	1.12038	-3.54981
C	2.80465	0.659694	-3.07487
C	3.30866	-0.279119	-2.04735
O	3.12103	-1.48401	-2.14493
H	2.27001	0.0878636	-3.8642
H	3.65063	1.2086	-3.53946
H	2.10002	1.38577	-2.61742
N	3.96577	0.263465	-1.01965
C	4.51551	-0.519903	0.0578265
C	4.70647	0.397104	1.25025
O	4.64888	1.61836	1.11963
H	4.0868	1.24907	-0.936736
H	3.79969	-1.28155	0.339907
C	5.86412	-1.15879	-0.342412
H	6.59588	-0.374643	-0.631836
H	6.29014	-1.76281	0.484896
H	5.71093	-1.82719	-1.21758
N	4.91791	-0.175537	2.45165
C	5.09876	0.617339	3.64531
H	4.95399	-1.16573	2.53796
H	5.2614	-0.0361721	4.53059
H	4.20167	1.24971	3.83658
H	5.97989	1.29091	3.54002
