44
  This energy is -2.3943 and Call times are: 7950
C	1.30086	-2.04395	2.50124
C	0.697035	-1.84694	1.16415
O	0.592607	-2.7752	0.374263
H	1.61063	-3.1059	2.61149
H	0.562483	-1.80086	3.29404
H	2.19439	-1.39503	2.6172
N	0.285107	-0.610177	0.8759
C	-0.322459	-0.262376	-0.383753
C	-0.180989	1.23563	-0.571402
O	0.142502	1.95912	0.368675
H	0.402254	0.143805	1.51678
H	0.22328	-0.747037	-1.18335
C	-1.81406	-0.663647	-0.418636
H	-2.37079	-0.165184	0.403378
H	-2.28494	-0.397412	-1.38723
H	-1.9042	-1.76296	-0.278914
N	-0.400504	1.73472	-1.80376
C	-0.277625	3.1471	-2.07993
H	-0.654417	1.13198	-2.55308
H	-0.499167	3.35947	-3.14907
H	0.754915	3.5023	-1.85871
H	-0.986505	3.73359	-1.45168
C	4.20367	-3.16046	0.213856
C	5.36781	-2.25205	0.317702
O	6.43927	-2.64478	0.758417
H	4.48812	-4.16664	0.591438
H	3.88278	-3.25158	-0.845177
H	3.3602	-2.7731	0.823326
N	5.17674	-0.994536	-0.0879002
C	6.21365	0.00551863	-0.0485771
C	5.54807	1.36781	-0.0688546
O	4.35971	1.4825	-0.362923
H	4.29089	-0.679264	-0.41777
H	6.75285	-0.0832601	0.886008
C	7.17537	-0.13383	-1.24974
H	6.61879	-0.0429241	-2.20686
H	7.9751	0.634582	-1.22249
H	7.65556	-1.13628	-1.2241
N	6.29884	2.43538	0.266755
C	5.74779	3.77034	0.287086
H	7.2568	2.32107	0.508589
H	6.5221	4.51088	0.585916
H	4.90281	3.8356	1.01026
H	5.36305	4.05214	-0.719764
