44
  This energy is -0.7618 and Call times are: 24360
C	0.243078	-3.12906	1.50865
C	-0.110889	-2.26001	0.363809
O	-0.445645	-2.73629	-0.712103
H	0.153426	-4.19408	1.20281
H	-0.445079	-2.94034	2.35933
H	1.28824	-2.93381	1.82876
N	-0.0373285	-0.943601	0.573608
C	-0.350856	0.028624	-0.442909
C	0.318378	1.33453	-0.0608374
O	0.770824	1.50164	1.07018
H	0.264797	-0.568105	1.44577
H	0.0749319	-0.296244	-1.38378
C	-1.8767	0.23232	-0.574921
H	-2.31033	0.564928	0.392268
H	-2.12165	0.980194	-1.35688
H	-2.35528	-0.73167	-0.853902
N	0.416091	2.28755	-1.00857
C	1.04774	3.55839	-0.739952
H	0.0501223	2.13051	-1.91997
H	1.02729	4.20652	-1.6437
H	2.10995	3.41291	-0.436963
H	0.523079	4.09136	0.0857872
C	10.1718	-1.91255	0.470217
C	8.9653	-1.54476	-0.304592
O	8.7561	-2.01927	-1.41255
H	10.7815	-2.6317	-0.118825
H	9.87978	-2.39007	1.42914
H	10.7831	-1.00931	0.678515
N	8.13504	-0.671298	0.26994
C	6.92062	-0.217164	-0.359161
C	6.52275	1.0948	0.28868
O	7.044	1.45987	1.34075
H	8.33132	-0.269662	1.1605
H	7.11844	-0.0207772	-1.40528
C	5.78483	-1.25285	-0.202794
H	5.58497	-1.45245	0.871605
H	4.8483	-0.90641	-0.686192
H	6.08908	-2.20966	-0.680367
N	5.59944	1.84804	-0.340704
C	5.16724	3.11781	0.195096
H	5.19458	1.53863	-1.19486
H	4.40287	3.58358	-0.46523
H	6.02771	3.81983	0.284589
H	4.72234	2.98609	1.20796
