44
  This energy is -2.3281 and Call times are: 26285
C	-0.000725442	2.63532	-2.27623
C	0.178247	2.09611	-0.909328
O	0.614518	2.79559	-0.0055131
H	0.321649	3.69905	-2.29656
H	-1.06902	2.57786	-2.57332
H	0.615037	2.05929	-2.9987
N	-0.155458	0.816161	-0.728366
C	-0.0377858	0.150111	0.544175
C	0.010576	-1.34324	0.285709
O	-0.297982	-1.80137	-0.81281
H	-0.482279	0.248669	-1.47942
H	0.899646	0.434722	1.00493
C	-1.2272	0.490876	1.46953
H	-2.18732	0.198193	0.993473
H	-1.13969	-0.0202065	2.4503
H	-1.25227	1.58764	1.65017
N	0.422706	-2.13882	1.29229
C	0.512082	-3.57178	1.13473
H	0.674913	-1.74832	2.17157
H	0.868528	-4.04919	2.07403
H	1.22219	-3.8336	0.317153
H	-0.483178	-4.00187	0.878504
C	4.46098	-2.0104	-2.7456
C	4.13244	-1.45381	-1.41388
O	3.0415	-1.652	-0.897088
H	3.58761	-2.57987	-3.13131
H	5.33153	-2.69539	-2.66977
H	4.69722	-1.19011	-3.45572
N	5.08451	-0.727783	-0.823285
C	4.91408	-0.121355	0.472874
C	5.91911	1.00748	0.594896
O	6.85123	1.10796	-0.200647
H	5.95851	-0.549219	-1.26733
H	3.92377	0.312206	0.531019
C	5.12845	-1.14844	1.607
H	6.14512	-1.59173	1.54394
H	4.99781	-0.684866	2.60641
H	4.38699	-1.97071	1.5057
N	5.73859	1.90054	1.5878
C	6.63805	3.01514	1.77436
H	4.9741	1.80605	2.21698
H	6.32268	3.63377	2.64333
H	6.65247	3.66416	0.868931
H	7.67644	2.65578	1.95813
