 Entering Gaussian System, Link 0=g09
 Input=opt-AT-pair.gjf
 Output=opt-AT-pair.log
 Initial command:
 /usr/g09/l1.exe /scratch/litao/gaussian/Gau-12640.inp -scrdir=/scratch/litao/gaussian/
 Entering Link 1 = /usr/g09/l1.exe PID=     12641.
  
 Copyright (c) 1988,1990,1992,1993,1995,1998,2003,2009, Gaussian, Inc.
                  All Rights Reserved.
  
 This is part of the Gaussian(R) 09 program.  It is based on
 the Gaussian(R) 03 system (copyright 2003, Gaussian, Inc.),
 the Gaussian(R) 98 system (copyright 1998, Gaussian, Inc.),
 the Gaussian(R) 94 system (copyright 1995, Gaussian, Inc.),
 the Gaussian 92(TM) system (copyright 1992, Gaussian, Inc.),
 the Gaussian 90(TM) system (copyright 1990, Gaussian, Inc.),
 the Gaussian 88(TM) system (copyright 1988, Gaussian, Inc.),
 the Gaussian 86(TM) system (copyright 1986, Carnegie Mellon
 University), and the Gaussian 82(TM) system (copyright 1983,
 Carnegie Mellon University). Gaussian is a federally registered
 trademark of Gaussian, Inc.
  
 This software contains proprietary and confidential information,
 including trade secrets, belonging to Gaussian, Inc.
  
 This software is provided under written license and may be
 used, copied, transmitted, or stored only in accord with that
 written license.
  
 The following legend is applicable only to US Government
 contracts under FAR:
  
                    RESTRICTED RIGHTS LEGEND
  
 Use, reproduction and disclosure by the US Government is
 subject to restrictions as set forth in subparagraphs (a)
 and (c) of the Commercial Computer Software - Restricted
 Rights clause in FAR 52.227-19.
  
 Gaussian, Inc.
 340 Quinnipiac St., Bldg. 40, Wallingford CT 06492
  
  
 ---------------------------------------------------------------
 Warning -- This program may not be used in any manner that
 competes with the business of Gaussian, Inc. or will provide
 assistance to any competitor of Gaussian, Inc.  The licensee
 of this program is prohibited from giving any competitor of
 Gaussian, Inc. access to this program.  By using this program,
 the user acknowledges that Gaussian, Inc. is engaged in the
 business of creating and licensing software in the field of
 computational chemistry and represents and warrants to the
 licensee that it is not a competitor of Gaussian, Inc. and that
 it will not use this program in any manner prohibited above.
 ---------------------------------------------------------------
  

 Cite this work as:
 Gaussian 09, Revision A.01,
 M. J. Frisch, G. W. Trucks, H. B. Schlegel, G. E. Scuseria, 
 M. A. Robb, J. R. Cheeseman, G. Scalmani, V. Barone, B. Mennucci, 
 G. A. Petersson, H. Nakatsuji, M. Caricato, X. Li, H. P. Hratchian, 
 A. F. Izmaylov, J. Bloino, G. Zheng, J. L. Sonnenberg, M. Hada, 
 M. Ehara, K. Toyota, R. Fukuda, J. Hasegawa, M. Ishida, T. Nakajima, 
 Y. Honda, O. Kitao, H. Nakai, T. Vreven, J. A. Montgomery, Jr., 
 J. E. Peralta, F. Ogliaro, M. Bearpark, J. J. Heyd, E. Brothers, 
 K. N. Kudin, V. N. Staroverov, R. Kobayashi, J. Normand, 
 K. Raghavachari, A. Rendell, J. C. Burant, S. S. Iyengar, J. Tomasi, 
 M. Cossi, N. Rega, J. M. Millam, M. Klene, J. E. Knox, J. B. Cross, 
 V. Bakken, C. Adamo, J. Jaramillo, R. Gomperts, R. E. Stratmann, 
 O. Yazyev, A. J. Austin, R. Cammi, C. Pomelli, J. W. Ochterski, 
 R. L. Martin, K. Morokuma, V. G. Zakrzewski, G. A. Voth, 
 P. Salvador, J. J. Dannenberg, S. Dapprich, A. D. Daniels, 
 O. Farkas, J. B. Foresman, J. V. Ortiz, J. Cioslowski, 
 and D. J. Fox, Gaussian, Inc., Wallingford CT, 2009.
 
 ******************************************
 Gaussian 09:  EM64L-G09RevA.01  8-May-2009
                23-May-2015 
 ******************************************
 %nprocshared=8
 Will use up to    8 processors via shared memory.
 %mem=8GB
 %chk=opt-AT-pair.chk
 ----------------
 #opt b3lyp/6-31g
 ----------------
 1/14=-1,18=20,19=15,26=3,38=1/1,3;
 2/9=110,12=2,17=6,18=5,40=1/2;
 3/5=1,6=6,11=2,16=1,25=1,30=1,71=1,74=-5/1,2,3;
 4//1;
 5/5=2,38=5/2;
 6/7=2,8=2,9=2,10=2,28=1/1;
 7//1,2,3,16;
 1/14=-1,18=20,19=15/3(2);
 2/9=110/2;
 99//99;
 2/9=110/2;
 3/5=1,6=6,11=2,16=1,25=1,30=1,71=1,74=-5/1,2,3;
 4/5=5,16=3/1;
 5/5=2,38=5/2;
 7//1,2,3,16;
 1/14=-1,18=20,19=15/3(-5);
 2/9=110/2;
 6/7=2,8=2,9=2,10=2,19=2,28=1/1;
 99/9=1/99;
 -------------------
 Title Card Required
 -------------------
 Symbolic Z-matrix:
 Charge =  0 Multiplicity = 1
 C                     0.45705  -0.31168   1.27004 
 N                    -0.76718  -0.27031   1.85964 
 C                    -1.85154   0.02105   1.10062 
 C                     0.54609  -0.04826  -0.11309 
 C                    -0.65552   0.24015  -0.7809 
 N                    -1.88373   0.28833  -0.22291 
 H                    -2.8013    0.04086   1.61986 
 N                     1.5378   -0.60337   2.03309 
 H                     1.40439  -0.78129   3.015 
 H                     2.45742  -0.64156   1.62597 
 N                     1.62954  -0.01262  -0.99838 
 C                     1.09068   0.29043  -2.17169 
 N                    -0.29002   0.45478  -2.09869 
 H                     1.63529   0.40332  -3.09442 
 H                    -0.92131   0.68568  -2.84886 
 C                     6.91818   0.74647   2.38094 
 C                     6.40367   0.29498   1.04421 
 H                     6.43074   0.19553   3.19351 
 H                     6.69489   1.80652   2.54769 
 H                     7.99971   0.60156   2.46183 
 C                     4.96796   0.42649   0.78378 
 C                     7.1906   -0.22554   0.06915 
 N                     6.68351  -0.63377  -1.15603 
 H                     8.25905  -0.3509    0.1947 
 N                     4.55028  -0.01516  -0.48869 
 C                     5.3365   -0.55088  -1.50183 
 H                     3.56127   0.06672  -0.69011 
 H                     7.28937  -1.018    -1.86571 
 O                     4.89523  -0.92032  -2.60396 
 O                     4.13778   0.88764   1.59292 
 

 GradGradGradGradGradGradGradGradGradGradGradGradGradGradGradGradGradGrad
 Berny optimization.
 Initialization pass.
                           ----------------------------
                           !    Initial Parameters    !
                           ! (Angstroms and Degrees)  !
 --------------------------                            --------------------------
 ! Name  Definition              Value          Derivative Info.                !
 --------------------------------------------------------------------------------
 ! R1    R(1,2)                  1.3594         estimate D2E/DX2                !
 ! R2    R(1,4)                  1.4108         estimate D2E/DX2                !
 ! R3    R(1,8)                  1.3548         estimate D2E/DX2                !
 ! R4    R(2,3)                  1.3553         estimate D2E/DX2                !
 ! R5    R(3,6)                  1.3506         estimate D2E/DX2                !
 ! R6    R(3,7)                  1.0826         estimate D2E/DX2                !
 ! R7    R(4,5)                  1.4046         estimate D2E/DX2                !
 ! R8    R(4,11)                 1.3996         estimate D2E/DX2                !
 ! R9    R(5,6)                  1.3499         estimate D2E/DX2                !
 ! R10   R(5,13)                 1.3843         estimate D2E/DX2                !
 ! R11   R(8,9)                  1.0068         estimate D2E/DX2                !
 ! R12   R(8,10)                 1.0064         estimate D2E/DX2                !
 ! R13   R(10,30)                2.2723         estimate D2E/DX2                !
 ! R14   R(11,12)                1.3262         estimate D2E/DX2                !
 ! R15   R(11,27)                1.9578         estimate D2E/DX2                !
 ! R16   R(12,13)                1.3924         estimate D2E/DX2                !
 ! R17   R(12,14)                1.0774         estimate D2E/DX2                !
 ! R18   R(13,15)                1.0073         estimate D2E/DX2                !
 ! R19   R(16,17)                1.5018         estimate D2E/DX2                !
 ! R20   R(16,18)                1.0961         estimate D2E/DX2                !
 ! R21   R(16,19)                1.0961         estimate D2E/DX2                !
 ! R22   R(16,20)                1.0942         estimate D2E/DX2                !
 ! R23   R(17,21)                1.4651         estimate D2E/DX2                !
 ! R24   R(17,22)                1.3568         estimate D2E/DX2                !
 ! R25   R(21,25)                1.4102         estimate D2E/DX2                !
 ! R26   R(21,30)                1.2476         estimate D2E/DX2                !
 ! R27   R(22,23)                1.3874         estimate D2E/DX2                !
 ! R28   R(22,24)                1.0831         estimate D2E/DX2                !
 ! R29   R(23,26)                1.3932         estimate D2E/DX2                !
 ! R30   R(23,28)                1.0091         estimate D2E/DX2                !
 ! R31   R(25,26)                1.3898         estimate D2E/DX2                !
 ! R32   R(25,27)                1.0126         estimate D2E/DX2                !
 ! R33   R(26,29)                1.2433         estimate D2E/DX2                !
 ! A1    A(2,1,4)              118.4478         estimate D2E/DX2                !
 ! A2    A(2,1,8)              118.7295         estimate D2E/DX2                !
 ! A3    A(4,1,8)              122.8227         estimate D2E/DX2                !
 ! A4    A(1,2,3)              118.9575         estimate D2E/DX2                !
 ! A5    A(2,3,6)              127.6192         estimate D2E/DX2                !
 ! A6    A(2,3,7)              115.9277         estimate D2E/DX2                !
 ! A7    A(6,3,7)              116.4531         estimate D2E/DX2                !
 ! A8    A(1,4,5)              116.7724         estimate D2E/DX2                !
 ! A9    A(1,4,11)             132.3563         estimate D2E/DX2                !
 ! A10   A(5,4,11)             110.8713         estimate D2E/DX2                !
 ! A11   A(4,5,6)              126.0971         estimate D2E/DX2                !
 ! A12   A(4,5,13)             104.9843         estimate D2E/DX2                !
 ! A13   A(6,5,13)             128.9185         estimate D2E/DX2                !
 ! A14   A(3,6,5)              112.1059         estimate D2E/DX2                !
 ! A15   A(1,8,9)              118.7942         estimate D2E/DX2                !
 ! A16   A(1,8,10)             120.6151         estimate D2E/DX2                !
 ! A17   A(9,8,10)             120.5907         estimate D2E/DX2                !
 ! A18   A(8,10,30)            131.0007         estimate D2E/DX2                !
 ! A19   A(4,11,12)            104.5301         estimate D2E/DX2                !
 ! A20   A(4,11,27)            131.7016         estimate D2E/DX2                !
 ! A21   A(12,11,27)           122.0694         estimate D2E/DX2                !
 ! A22   A(11,12,13)           112.5503         estimate D2E/DX2                !
 ! A23   A(11,12,14)           125.1877         estimate D2E/DX2                !
 ! A24   A(13,12,14)           122.262          estimate D2E/DX2                !
 ! A25   A(5,13,12)            107.0639         estimate D2E/DX2                !
 ! A26   A(5,13,15)            125.383          estimate D2E/DX2                !
 ! A27   A(12,13,15)           127.5531         estimate D2E/DX2                !
 ! A28   A(17,16,18)           110.8787         estimate D2E/DX2                !
 ! A29   A(17,16,19)           110.8774         estimate D2E/DX2                !
 ! A30   A(17,16,20)           111.3843         estimate D2E/DX2                !
 ! A31   A(18,16,19)           106.4241         estimate D2E/DX2                !
 ! A32   A(18,16,20)           108.5539         estimate D2E/DX2                !
 ! A33   A(19,16,20)           108.5535         estimate D2E/DX2                !
 ! A34   A(16,17,21)           117.8381         estimate D2E/DX2                !
 ! A35   A(16,17,22)           123.799          estimate D2E/DX2                !
 ! A36   A(21,17,22)           118.3629         estimate D2E/DX2                !
 ! A37   A(17,21,25)           114.9951         estimate D2E/DX2                !
 ! A38   A(17,21,30)           124.748          estimate D2E/DX2                !
 ! A39   A(25,21,30)           120.2568         estimate D2E/DX2                !
 ! A40   A(17,22,23)           122.3788         estimate D2E/DX2                !
 ! A41   A(17,22,24)           122.2253         estimate D2E/DX2                !
 ! A42   A(23,22,24)           115.3959         estimate D2E/DX2                !
 ! A43   A(22,23,26)           123.716          estimate D2E/DX2                !
 ! A44   A(22,23,28)           120.906          estimate D2E/DX2                !
 ! A45   A(26,23,28)           115.378          estimate D2E/DX2                !
 ! A46   A(21,25,26)           127.6574         estimate D2E/DX2                !
 ! A47   A(21,25,27)           116.3227         estimate D2E/DX2                !
 ! A48   A(26,25,27)           116.0199         estimate D2E/DX2                !
 ! A49   A(23,26,25)           112.8897         estimate D2E/DX2                !
 ! A50   A(23,26,29)           123.0584         estimate D2E/DX2                !
 ! A51   A(25,26,29)           124.0519         estimate D2E/DX2                !
 ! A52   A(11,27,25)           172.6231         estimate D2E/DX2                !
 ! A53   A(10,30,21)           104.6408         estimate D2E/DX2                !
 ! D1    D(4,1,2,3)              0.0            estimate D2E/DX2                !
 ! D2    D(8,1,2,3)           -180.0            estimate D2E/DX2                !
 ! D3    D(2,1,4,5)              0.0            estimate D2E/DX2                !
 ! D4    D(2,1,4,11)          -180.0            estimate D2E/DX2                !
 ! D5    D(8,1,4,5)            180.0            estimate D2E/DX2                !
 ! D6    D(8,1,4,11)             0.0            estimate D2E/DX2                !
 ! D7    D(2,1,8,9)             -0.0001         estimate D2E/DX2                !
 ! D8    D(2,1,8,10)           180.0            estimate D2E/DX2                !
 ! D9    D(4,1,8,9)            179.9999         estimate D2E/DX2                !
 ! D10   D(4,1,8,10)             0.0            estimate D2E/DX2                !
 ! D11   D(1,2,3,6)              0.0            estimate D2E/DX2                !
 ! D12   D(1,2,3,7)           -180.0            estimate D2E/DX2                !
 ! D13   D(2,3,6,5)             -0.0001         estimate D2E/DX2                !
 ! D14   D(7,3,6,5)            180.0            estimate D2E/DX2                !
 ! D15   D(1,4,5,6)              0.0            estimate D2E/DX2                !
 ! D16   D(1,4,5,13)           180.0            estimate D2E/DX2                !
 ! D17   D(11,4,5,6)           180.0            estimate D2E/DX2                !
 ! D18   D(11,4,5,13)            0.0            estimate D2E/DX2                !
 ! D19   D(1,4,11,12)         -180.0            estimate D2E/DX2                !
 ! D20   D(1,4,11,27)          -15.0802         estimate D2E/DX2                !
 ! D21   D(5,4,11,12)            0.0            estimate D2E/DX2                !
 ! D22   D(5,4,11,27)          164.9198         estimate D2E/DX2                !
 ! D23   D(4,5,6,3)              0.0            estimate D2E/DX2                !
 ! D24   D(13,5,6,3)          -179.9999         estimate D2E/DX2                !
 ! D25   D(4,5,13,12)            0.0001         estimate D2E/DX2                !
 ! D26   D(4,5,13,15)          179.9998         estimate D2E/DX2                !
 ! D27   D(6,5,13,12)         -180.0            estimate D2E/DX2                !
 ! D28   D(6,5,13,15)           -0.0002         estimate D2E/DX2                !
 ! D29   D(1,8,10,30)           99.1013         estimate D2E/DX2                !
 ! D30   D(9,8,10,30)          -80.8986         estimate D2E/DX2                !
 ! D31   D(8,10,30,21)        -169.7572         estimate D2E/DX2                !
 ! D32   D(4,11,12,13)           0.0            estimate D2E/DX2                !
 ! D33   D(4,11,12,14)        -180.0            estimate D2E/DX2                !
 ! D34   D(27,11,12,13)       -166.7484         estimate D2E/DX2                !
 ! D35   D(27,11,12,14)         13.2516         estimate D2E/DX2                !
 ! D36   D(4,11,27,25)          70.7809         estimate D2E/DX2                !
 ! D37   D(12,11,27,25)       -126.5087         estimate D2E/DX2                !
 ! D38   D(11,12,13,5)           0.0            estimate D2E/DX2                !
 ! D39   D(11,12,13,15)       -179.9998         estimate D2E/DX2                !
 ! D40   D(14,12,13,5)         180.0            estimate D2E/DX2                !
 ! D41   D(14,12,13,15)          0.0002         estimate D2E/DX2                !
 ! D42   D(18,16,17,21)         59.0163         estimate D2E/DX2                !
 ! D43   D(18,16,17,22)       -120.9747         estimate D2E/DX2                !
 ! D44   D(19,16,17,21)        -58.9767         estimate D2E/DX2                !
 ! D45   D(19,16,17,22)        121.0323         estimate D2E/DX2                !
 ! D46   D(20,16,17,21)       -179.9795         estimate D2E/DX2                !
 ! D47   D(20,16,17,22)          0.0295         estimate D2E/DX2                !
 ! D48   D(16,17,21,25)       -179.9992         estimate D2E/DX2                !
 ! D49   D(16,17,21,30)          0.0127         estimate D2E/DX2                !
 ! D50   D(22,17,21,25)         -0.0076         estimate D2E/DX2                !
 ! D51   D(22,17,21,30)       -179.9958         estimate D2E/DX2                !
 ! D52   D(16,17,22,23)        179.9883         estimate D2E/DX2                !
 ! D53   D(16,17,22,24)         -0.0028         estimate D2E/DX2                !
 ! D54   D(21,17,22,23)         -0.0027         estimate D2E/DX2                !
 ! D55   D(21,17,22,24)       -179.9938         estimate D2E/DX2                !
 ! D56   D(17,21,25,26)          0.0101         estimate D2E/DX2                !
 ! D57   D(17,21,25,27)       -179.9928         estimate D2E/DX2                !
 ! D58   D(30,21,25,26)        179.9988         estimate D2E/DX2                !
 ! D59   D(30,21,25,27)         -0.0041         estimate D2E/DX2                !
 ! D60   D(17,21,30,10)       -130.627          estimate D2E/DX2                !
 ! D61   D(25,21,30,10)         49.3854         estimate D2E/DX2                !
 ! D62   D(17,22,23,26)          0.0127         estimate D2E/DX2                !
 ! D63   D(17,22,23,28)        179.9963         estimate D2E/DX2                !
 ! D64   D(24,22,23,26)       -179.9957         estimate D2E/DX2                !
 ! D65   D(24,22,23,28)         -0.012          estimate D2E/DX2                !
 ! D66   D(22,23,26,25)         -0.0102         estimate D2E/DX2                !
 ! D67   D(22,23,26,29)        179.9881         estimate D2E/DX2                !
 ! D68   D(28,23,26,25)       -179.9947         estimate D2E/DX2                !
 ! D69   D(28,23,26,29)          0.0036         estimate D2E/DX2                !
 ! D70   D(21,25,26,23)         -0.0014         estimate D2E/DX2                !
 ! D71   D(21,25,26,29)       -179.9997         estimate D2E/DX2                !
 ! D72   D(27,25,26,23)       -179.9985         estimate D2E/DX2                !
 ! D73   D(27,25,26,29)          0.0031         estimate D2E/DX2                !
 ! D74   D(21,25,27,11)        -93.6144         estimate D2E/DX2                !
 ! D75   D(26,25,27,11)         86.383          estimate D2E/DX2                !
 --------------------------------------------------------------------------------
 Trust Radius=3.00D-01 FncErr=1.00D-07 GrdErr=1.00D-06
 Number of steps in this run= 171 maximum allowed number of steps= 180.
 GradGradGradGradGradGradGradGradGradGradGradGradGradGradGradGradGradGrad

                          Input orientation:                          
 ---------------------------------------------------------------------
 Center     Atomic      Atomic             Coordinates (Angstroms)
 Number     Number       Type             X           Y           Z
 ---------------------------------------------------------------------
      1          6           0        0.457047   -0.311681    1.270040
      2          7           0       -0.767178   -0.270306    1.859640
      3          6           0       -1.851540    0.021049    1.100620
      4          6           0        0.546093   -0.048258   -0.113090
      5          6           0       -0.655520    0.240153   -0.780899
      6          7           0       -1.883730    0.288328   -0.222910
      7          1           0       -2.801300    0.040858    1.619860
      8          7           0        1.537800   -0.603370    2.033090
      9          1           0        1.404390   -0.781285    3.015000
     10          1           0        2.457420   -0.641563    1.625970
     11          7           0        1.629540   -0.012617   -0.998376
     12          6           0        1.090680    0.290434   -2.171690
     13          7           0       -0.290017    0.454776   -2.098690
     14          1           0        1.635290    0.403319   -3.094420
     15          1           0       -0.921313    0.685680   -2.848860
     16          6           0        6.918180    0.746465    2.380940
     17          6           0        6.403670    0.294980    1.044210
     18          1           0        6.430740    0.195527    3.193510
     19          1           0        6.694890    1.806520    2.547690
     20          1           0        7.999710    0.601564    2.461830
     21          6           0        4.967960    0.426485    0.783775
     22          6           0        7.190600   -0.225540    0.069152
     23          7           0        6.683510   -0.633768   -1.156030
     24          1           0        8.259050   -0.350901    0.194702
     25          7           0        4.550280   -0.015164   -0.488694
     26          6           0        5.336500   -0.550875   -1.501830
     27          1           0        3.561270    0.066722   -0.690110
     28          1           0        7.289370   -1.018000   -1.865710
     29          8           0        4.895230   -0.920317   -2.603960
     30          8           0        4.137780    0.887635    1.592920
 ---------------------------------------------------------------------
                    Distance matrix (angstroms):
                    1          2          3          4          5
     1  C    0.000000
     2  N    1.359436   0.000000
     3  C    2.338586   1.355301   0.000000
     4  C    1.410805   2.380263   2.688222   0.000000
     5  C    2.397640   2.691743   2.240220   1.404644   0.000000
     6  N    2.840448   2.428122   1.350632   2.455482   1.349879
     7  H    3.295980   2.071707   1.082611   3.770424   3.226102
     8  N    1.354753   2.335367   3.570298   2.428522   3.666158
     9  H    2.040312   2.512302   3.861304   3.325500   4.437952
    10  H    2.058398   3.254300   4.391148   2.651323   4.032473
    11  N    2.570971   3.738839   4.065075   1.399592   2.309261
    12  C    3.550991   4.474113   4.408768   2.156182   2.232945
    13  N    3.534672   4.052382   3.586371   2.212404   1.384279
    14  H    4.576898   5.546921   5.468315   3.206026   3.259879
    15  H    4.456450   4.807041   4.111624   3.190044   2.132042
    16  C    6.640784   7.769833   8.892325   6.888778   8.222804
    17  C    5.981752   7.239167   8.259946   5.980666   7.291515
    18  H    6.296190   7.335273   8.544401   6.754414   8.124838
    19  H    6.710428   7.776187   8.850050   6.951810   8.219583
    20  H    7.690653   8.830692   9.961778   7.912578   9.249806
    21  C    4.596703   5.876633   6.838885   4.536811   5.840073
    22  C    6.840343   8.156843   9.104121   6.649369   7.905761
    23  N    6.690172   8.046063   8.852589   6.252874   7.400393
    24  H    7.875858   9.178851  10.157906   7.725026   8.987252
    25  N    4.464933   5.818516   6.596251   4.021901   5.220242
    26  C    5.616898   6.973743   7.666013   5.012906   6.086852
    27  H    3.690742   5.034906   5.701518   3.072046   4.221331
    28  H    7.550659   8.907595   9.666177   7.034477   8.116714
    29  O    5.922481   7.239413   7.754288   5.087230   5.956599
    30  O    3.884637   5.046839   6.071679   4.084921   5.387947
                    6          7          8          9         10
     6  N    0.000000
     7  H    2.073398   0.000000
     8  N    4.194226   4.406084   0.000000
     9  H    4.737074   4.506680   1.006777   0.000000
    10  H    4.809224   5.302817   1.006432   1.748656   0.000000
    11  N    3.610399   5.146879   3.089853   4.092521   2.822791
    12  C    3.555962   5.439269   4.321918   5.305539   4.142320
    13  N    2.467018   4.506161   4.640280   5.527087   4.756413
    14  H    4.543379   6.483760   5.226307   6.227489   4.904055
    15  H    2.824845   4.890767   5.616255   6.476553   5.762076
    16  C    9.190405   9.774734   5.558016   5.756556   4.732334
    17  C    8.383713   9.226452   5.045950   5.480434   4.097371
    18  H    8.989491   9.366475   5.091726   5.123497   4.352605
    19  H    9.141874   9.703404   5.715589   5.908003   4.979842
    20  H   10.246381  10.848277   6.587258   6.761399   5.741168
    21  C    6.926627   7.823628   3.793071   4.374483   2.855316
    22  C    9.093560  10.115025   5.996162   6.516678   4.999975
    23  N    8.667097   9.905670   6.053903   6.729663   5.059587
    24  H   10.171480  11.158669   6.972705   7.424667   5.982635
    25  N    6.446645   7.648194   3.972457   4.770685   3.040435
    26  C    7.380489   8.736068   5.189271   5.993024   4.252112
    27  H    5.469498   6.768968   3.458218   4.370250   2.661650
    28  H    9.410157  10.728094   6.960827   7.649206   5.973381
    29  O    7.285912   8.831822   5.733675   6.616495   4.890085
    30  O    6.317831   6.990607   3.029314   3.504144   2.272256
                   11         12         13         14         15
    11  N    0.000000
    12  C    1.326226   0.000000
    13  N    2.261381   1.392358   0.000000
    14  H    2.136922   1.077392   2.168164   0.000000
    15  H    3.227810   2.159374   1.007277   2.583843   0.000000
    16  C    6.321843   7.409059   8.491777   7.616183   9.424020
    17  C    5.201835   6.210467   7.396540   6.314859   8.304458
    18  H    6.377049   7.570378   8.558222   7.910599   9.529070
    19  H    6.445278   7.481860   8.497352   7.707265   9.401361
    20  H    7.275253   8.324723   9.462529   8.450861  10.382445
    21  C    3.809714   4.877149   5.996309   5.113475   6.924360
    22  C    5.666599   6.518944   7.818056   6.423794   8.668809
    23  N    5.094438   5.758946   7.120647   5.506127   7.901895
    24  H    6.744500   7.576058   8.887931   7.433799   9.727119
    25  N    2.964878   3.859365   5.122637   3.932188   5.999991
    26  C    3.779516   4.379897   5.746762   4.140747   6.519492
    27  H    1.957780   2.889453   4.119113   3.098936   5.013667
    28  H    5.813496   6.342664   7.724665   5.958061   8.443010
    29  O    3.750540   4.015890   5.388225   3.552432   6.039153
    30  O    3.717060   4.879934   5.781067   5.335558   6.735326
                   16         17         18         19         20
    16  C    0.000000
    17  C    1.501801   0.000000
    18  H    1.096084   2.151770   0.000000
    19  H    1.096075   2.151747   1.755607   0.000000
    20  H    1.094188   2.156614   1.778170   1.778158   0.000000
    21  C    2.541000   1.465054   2.828408   2.828105   3.469586
    22  C    2.522572   1.356811   3.242884   3.243169   2.657756
    23  N    3.803981   2.404566   4.435101   4.435389   4.043184
    24  H    2.789584   2.140388   3.554455   3.554942   2.472714
    25  N    3.797608   2.425085   4.139945   4.139748   4.580886
    26  C    4.388702   2.887324   4.878596   4.878642   4.912373
    27  H    4.600244   3.337545   4.830420   4.830095   5.469966
    28  H    4.613584   3.313007   5.273102   5.273464   4.674952
    29  O    5.632026   4.130555   6.100292   6.100321   6.133200
    30  O    2.893359   2.405531   2.880723   2.880060   3.968796
                   21         22         23         24         25
    21  C    0.000000
    22  C    2.424036   0.000000
    23  N    2.798230   1.387394   0.000000
    24  H    3.432581   1.083081   2.094473   0.000000
    25  N    1.410208   2.706795   2.319198   3.786123   0.000000
    26  C    2.512975   2.451839   1.393156   3.385190   1.389810
    27  H    2.068947   3.719400   3.233597   4.798587   1.012628
    28  H    3.807263   2.093189   1.009131   2.372888   3.225596
    29  O    3.646356   3.591235   2.318740   4.412712   2.326509
    30  O    1.247627   3.588974   4.043777   4.524804   2.306148
                   26         27         28         29         30
    26  C    0.000000
    27  H    2.047378   0.000000
    28  H    2.040665   4.056771   0.000000
    29  O    1.243341   2.533085   2.507282   0.000000
    30  O    3.617142   2.493689   5.052335   4.632086   0.000000
 Stoichiometry    C10H11N7O2
 Framework group  C1[X(C10H11N7O2)]
 Deg. of freedom    84
 Full point group                 C1      NOp   1
 Largest Abelian subgroup         C1      NOp   1
 Largest concise Abelian subgroup C1      NOp   1
                         Standard orientation:                         
 ---------------------------------------------------------------------
 Center     Atomic      Atomic             Coordinates (Angstroms)
 Number     Number       Type             X           Y           Z
 ---------------------------------------------------------------------
      1          6           0       -2.282817   -1.257107   -0.469889
      2          7           0       -3.494282   -1.872927   -0.504295
      3          6           0       -4.598253   -1.169286   -0.153612
      4          6           0       -2.227032    0.094296   -0.068681
      5          6           0       -3.446193    0.705087    0.268372
      6          7           0       -4.662411    0.119950    0.243828
      7          1           0       -5.536622   -1.707316   -0.198697
      8          7           0       -1.182363   -1.964798   -0.821356
      9          1           0       -1.292244   -2.926536   -1.098096
     10          1           0       -0.271464   -1.537083   -0.806154
     11          7           0       -1.163647    0.993665    0.069901
     12          6           0       -1.731457    2.119480    0.481007
     13          7           0       -3.112045    2.002053    0.618304
     14          1           0       -1.208457    3.037300    0.692785
     15          1           0       -3.762194    2.712246    0.914174
     16          6           0        4.188319   -2.335187    0.560721
     17          6           0        3.650031   -0.970877    0.237748
     18          1           0        3.725145   -3.098454   -0.075119
     19          1           0        3.956448   -2.611631    1.595706
     20          1           0        5.272963   -2.378938    0.423320
     21          6           0        2.207552   -0.754458    0.374865
     22          6           0        4.421478    0.067301   -0.172122
     23          7           0        3.892540    1.316474   -0.463077
     24          1           0        5.493794   -0.023100   -0.294714
     25          7           0        1.767353    0.546933    0.056600
     26          6           0        2.537435    1.624494   -0.364598
     27          1           0        0.773301    0.718783    0.144591
     28          1           0        4.487183    2.073313   -0.766294
     29          8           0        2.076533    2.748733   -0.628330
     30          8           0        1.389936   -1.622544    0.741616
 ---------------------------------------------------------------------
 Rotational constants (GHZ):      0.7308133      0.2008325      0.1635358
 Standard basis: 6-31G (6D, 7F)
 There are   193 symmetry adapted basis functions of A   symmetry.
 Integral buffers will be    131072 words long.
 Raffenetti 2 integral format.
 Two-electron integral symmetry is turned on.
   193 basis functions,   462 primitive gaussians,   193 cartesian basis functions
    68 alpha electrons       68 beta electrons
       nuclear repulsion energy      1363.1294303522 Hartrees.
 NAtoms=   30 NActive=   30 NUniq=   30 SFac= 7.50D-01 NAtFMM=   80 NAOKFM=F Big=F
 One-electron integrals computed using PRISM.
 NBasis=   193 RedAO= T  NBF=   193
 NBsUse=   193 1.00D-06 NBFU=   193
 Harris functional with IExCor=  402 diagonalized for initial guess.
 ExpMin= 1.61D-01 ExpMax= 5.48D+03 ExpMxC= 8.25D+02 IAcc=1 IRadAn=         1 AccDes= 0.00D+00
 HarFok:  IExCor=  402 AccDes= 0.00D+00 IRadAn=         1 IDoV= 1
 ScaDFX=  1.000000  1.000000  1.000000  1.000000
 FoFCou: FMM=F IPFlag=           0 FMFlag=      100000 FMFlg1=           0
         NFxFlg=           0 DoJE=T BraDBF=F KetDBF=T FulRan=T
         Omega=  0.000000  0.000000  1.000000  0.000000  0.000000 ICntrl=     500 IOpCl=  0
         NMat0=    1 NMatS0=    1 NMatT0=    0 NMatD0=    1 NMtDS0=    0 NMtDT0=    0
         I1Cent=           4 NGrid=           0.
 Petite list used in FoFCou.
 Initial guess orbital symmetries:
       Occupied  (A) (A) (A) (A) (A) (A) (A) (A) (A) (A) (A) (A)
                 (A) (A) (A) (A) (A) (A) (A) (A) (A) (A) (A) (A)
                 (A) (A) (A) (A) (A) (A) (A) (A) (A) (A) (A) (A)
                 (A) (A) (A) (A) (A) (A) (A) (A) (A) (A) (A) (A)
                 (A) (A) (A) (A) (A) (A) (A) (A) (A) (A) (A) (A)
                 (A) (A) (A) (A) (A) (A) (A) (A)
       Virtual   (A) (A) (A) (A) (A) (A) (A) (A) (A) (A) (A) (A)
                 (A) (A) (A) (A) (A) (A) (A) (A) (A) (A) (A) (A)
                 (A) (A) (A) (A) (A) (A) (A) (A) (A) (A) (A) (A)
                 (A) (A) (A) (A) (A) (A) (A) (A) (A) (A) (A) (A)
                 (A) (A) (A) (A) (A) (A) (A) (A) (A) (A) (A) (A)
                 (A) (A) (A) (A) (A) (A) (A) (A) (A) (A) (A) (A)
                 (A) (A) (A) (A) (A) (A) (A) (A) (A) (A) (A) (A)
                 (A) (A) (A) (A) (A) (A) (A) (A) (A) (A) (A) (A)
                 (A) (A) (A) (A) (A) (A) (A) (A) (A) (A) (A) (A)
                 (A) (A) (A) (A) (A) (A) (A) (A) (A) (A) (A) (A)
                 (A) (A) (A) (A) (A)
 The electronic state of the initial guess is 1-A.
 Requested convergence on RMS density matrix=1.00D-08 within 128 cycles.
 Requested convergence on MAX density matrix=1.00D-06.
 Requested convergence on             energy=1.00D-06.
 No special actions if energy rises.
 Keep R1 ints in memory in canonical form, NReq=179287759.
 Integral accuracy reduced to 1.0D-05 until final iterations.
 Initial convergence to 1.0D-05 achieved.  Increase integral accuracy.
 SCF Done:  E(RB3LYP) =  -921.175677666     A.U. after   16 cycles
             Convg  =    0.7606D-08             -V/T =  2.0055

 **********************************************************************

            Population analysis using the SCF density.

 **********************************************************************

 Orbital symmetries:
       Occupied  (A) (A) (A) (A) (A) (A) (A) (A) (A) (A) (A) (A)
                 (A) (A) (A) (A) (A) (A) (A) (A) (A) (A) (A) (A)
                 (A) (A) (A) (A) (A) (A) (A) (A) (A) (A) (A) (A)
                 (A) (A) (A) (A) (A) (A) (A) (A) (A) (A) (A) (A)
                 (A) (A) (A) (A) (A) (A) (A) (A) (A) (A) (A) (A)
                 (A) (A) (A) (A) (A) (A) (A) (A)
       Virtual   (A) (A) (A) (A) (A) (A) (A) (A) (A) (A) (A) (A)
                 (A) (A) (A) (A) (A) (A) (A) (A) (A) (A) (A) (A)
                 (A) (A) (A) (A) (A) (A) (A) (A) (A) (A) (A) (A)
                 (A) (A) (A) (A) (A) (A) (A) (A) (A) (A) (A) (A)
                 (A) (A) (A) (A) (A) (A) (A) (A) (A) (A) (A) (A)
                 (A) (A) (A) (A) (A) (A) (A) (A) (A) (A) (A) (A)
                 (A) (A) (A) (A) (A) (A) (A) (A) (A) (A) (A) (A)
                 (A) (A) (A) (A) (A) (A) (A) (A) (A) (A) (A) (A)
                 (A) (A) (A) (A) (A) (A) (A) (A) (A) (A) (A) (A)
                 (A) (A) (A) (A) (A) (A) (A) (A) (A) (A) (A) (A)
                 (A) (A) (A) (A) (A)
 The electronic state is 1-A.
 Alpha  occ. eigenvalues --  -19.12950 -19.12819 -14.40478 -14.40463 -14.37401
 Alpha  occ. eigenvalues --  -14.35216 -14.34316 -14.33115 -14.32368 -10.34387
 Alpha  occ. eigenvalues --  -10.31082 -10.27803 -10.27365 -10.26715 -10.26675
 Alpha  occ. eigenvalues --  -10.24892 -10.22145 -10.21708 -10.19097  -1.07975
 Alpha  occ. eigenvalues --   -1.05166  -1.04927  -0.98659  -0.98365  -0.93988
 Alpha  occ. eigenvalues --   -0.92625  -0.89956  -0.86345  -0.82519  -0.77626
 Alpha  occ. eigenvalues --   -0.72248  -0.68252  -0.67331  -0.66684  -0.65693
 Alpha  occ. eigenvalues --   -0.63861  -0.58511  -0.57462  -0.56927  -0.55426
 Alpha  occ. eigenvalues --   -0.52240  -0.52118  -0.50383  -0.48094  -0.47498
 Alpha  occ. eigenvalues --   -0.46979  -0.46561  -0.45269  -0.43128  -0.42967
 Alpha  occ. eigenvalues --   -0.42828  -0.42303  -0.40650  -0.40139  -0.39627
 Alpha  occ. eigenvalues --   -0.39234  -0.35728  -0.35612  -0.31956  -0.29732
 Alpha  occ. eigenvalues --   -0.28749  -0.27875  -0.27670  -0.26955  -0.26287
 Alpha  occ. eigenvalues --   -0.24267  -0.24091  -0.21850
 Alpha virt. eigenvalues --   -0.04420  -0.02549   0.00234   0.00529   0.03105
 Alpha virt. eigenvalues --    0.05840   0.07418   0.09918   0.10215   0.10739
 Alpha virt. eigenvalues --    0.12611   0.12954   0.15176   0.15512   0.16028
 Alpha virt. eigenvalues --    0.16254   0.17659   0.18174   0.19970   0.20830
 Alpha virt. eigenvalues --    0.21119   0.22079   0.22781   0.24640   0.25880
 Alpha virt. eigenvalues --    0.28489   0.30896   0.31585   0.32482   0.32705
 Alpha virt. eigenvalues --    0.34423   0.36331   0.36548   0.38681   0.39264
 Alpha virt. eigenvalues --    0.45987   0.46098   0.47175   0.48105   0.50406
 Alpha virt. eigenvalues --    0.52373   0.54134   0.54495   0.55364   0.55912
 Alpha virt. eigenvalues --    0.57618   0.59161   0.59942   0.60539   0.60790
 Alpha virt. eigenvalues --    0.61733   0.62633   0.63185   0.63420   0.63596
 Alpha virt. eigenvalues --    0.64787   0.65254   0.66451   0.67589   0.68317
 Alpha virt. eigenvalues --    0.70047   0.70303   0.70680   0.71298   0.72245
 Alpha virt. eigenvalues --    0.72985   0.74057   0.74827   0.76469   0.77747
 Alpha virt. eigenvalues --    0.81710   0.82075   0.82469   0.82865   0.85636
 Alpha virt. eigenvalues --    0.86301   0.87231   0.87963   0.88245   0.88657
 Alpha virt. eigenvalues --    0.89552   0.90304   0.91657   0.92632   0.93515
 Alpha virt. eigenvalues --    0.94896   0.95362   0.95617   0.95873   0.96952
 Alpha virt. eigenvalues --    0.98674   1.03207   1.03725   1.04243   1.06424
 Alpha virt. eigenvalues --    1.07974   1.09423   1.11019   1.12947   1.14189
 Alpha virt. eigenvalues --    1.15319   1.17510   1.18000   1.19899   1.23514
 Alpha virt. eigenvalues --    1.25717   1.29301   1.29497   1.37414   1.39046
 Alpha virt. eigenvalues --    1.42906   1.44483   1.48088   1.49289   1.56573
 Alpha virt. eigenvalues --    1.57558   1.64570   1.66739   1.69181   1.73815
 Alpha virt. eigenvalues --    1.87237   1.94199   1.95595   2.04862   2.10335
          Condensed to atoms (all electrons):
              1          2          3          4          5          6
     1  C    4.950233   0.482522  -0.052497   0.155103  -0.106568  -0.039643
     2  N    0.482522   6.938605   0.388009  -0.089354  -0.050254  -0.086130
     3  C   -0.052497   0.388009   4.872110  -0.053262  -0.058084   0.386064
     4  C    0.155103  -0.089354  -0.053262   5.590591   0.284462  -0.055867
     5  C   -0.106568  -0.050254  -0.058084   0.284462   5.168465   0.385100
     6  N   -0.039643  -0.086130   0.386064  -0.055867   0.385100   6.882475
     7  H    0.006214  -0.066641   0.398166  -0.001255   0.007337  -0.067081
     8  N    0.219570  -0.106909   0.004252  -0.108075   0.006736  -0.000496
     9  H   -0.004866   0.004789   0.000355   0.010281  -0.000092   0.000067
    10  H   -0.015813   0.002965  -0.000149  -0.009480   0.000149  -0.000008
    11  N   -0.037369   0.003247   0.000679   0.304940  -0.075707   0.005410
    12  C    0.006838  -0.000413  -0.000389  -0.069731  -0.113092   0.002804
    13  N    0.010129   0.000404   0.004238  -0.120350   0.156553  -0.060555
    14  H   -0.000153   0.000001   0.000002   0.005505   0.003147  -0.000051
    15  H    0.000027   0.000038   0.000111   0.009995  -0.009085   0.002504
    16  C    0.000000   0.000000   0.000000   0.000000   0.000000   0.000000
    17  C    0.000001   0.000000   0.000000   0.000001   0.000000   0.000000
    18  H    0.000000   0.000000   0.000000   0.000000   0.000000   0.000000
    19  H    0.000000   0.000000   0.000000   0.000000   0.000000   0.000000
    20  H    0.000000   0.000000   0.000000   0.000000   0.000000   0.000000
    21  C   -0.000038  -0.000001   0.000000   0.000129   0.000006   0.000000
    22  C    0.000000   0.000000   0.000000   0.000000   0.000000   0.000000
    23  N    0.000000   0.000000   0.000000   0.000000   0.000000   0.000000
    24  H    0.000000   0.000000   0.000000   0.000000   0.000000   0.000000
    25  N    0.000984   0.000001   0.000000  -0.000794  -0.000088   0.000000
    26  C    0.000008   0.000000   0.000000   0.000144  -0.000008   0.000000
    27  H   -0.003556  -0.000012   0.000000   0.001557   0.000874  -0.000004
    28  H    0.000000   0.000000   0.000000   0.000000   0.000000   0.000000
    29  O    0.000000   0.000000   0.000000   0.000025  -0.000001   0.000000
    30  O    0.000363  -0.000002   0.000000   0.000075   0.000002   0.000000
              7          8          9         10         11         12
     1  C    0.006214   0.219570  -0.004866  -0.015813  -0.037369   0.006838
     2  N   -0.066641  -0.106909   0.004789   0.002965   0.003247  -0.000413
     3  C    0.398166   0.004252   0.000355  -0.000149   0.000679  -0.000389
     4  C   -0.001255  -0.108075   0.010281  -0.009480   0.304940  -0.069731
     5  C    0.007337   0.006736  -0.000092   0.000149  -0.075707  -0.113092
     6  N   -0.067081  -0.000496   0.000067  -0.000008   0.005410   0.002804
     7  H    0.568600  -0.000024  -0.000036   0.000003   0.000010   0.000001
     8  N   -0.000024   7.118965   0.296060   0.309199   0.001611  -0.000079
     9  H   -0.000036   0.296060   0.382220  -0.020410  -0.000052   0.000007
    10  H    0.000003   0.309199  -0.020410   0.351273   0.002112  -0.000078
    11  N    0.000010   0.001611  -0.000052   0.002112   6.895109   0.443587
    12  C    0.000001  -0.000079   0.000007  -0.000078   0.443587   4.809839
    13  N   -0.000068  -0.000136   0.000002   0.000016  -0.086477   0.264373
    14  H    0.000000  -0.000001   0.000000  -0.000001  -0.033320   0.376588
    15  H   -0.000007   0.000001   0.000000   0.000000   0.002862  -0.014527
    16  C    0.000000   0.000002   0.000000  -0.000009   0.000000   0.000000
    17  C    0.000000  -0.000040   0.000004   0.000420  -0.000016   0.000001
    18  H    0.000000  -0.000002   0.000000   0.000024   0.000000   0.000000
    19  H    0.000000   0.000000   0.000000  -0.000005   0.000000   0.000000
    20  H    0.000000   0.000000   0.000000   0.000000   0.000000   0.000000
    21  C    0.000000   0.000016   0.000036   0.004115  -0.000218   0.000060
    22  C    0.000000   0.000001   0.000000  -0.000033  -0.000003   0.000000
    23  N    0.000000   0.000000   0.000000   0.000005  -0.000006   0.000004
    24  H    0.000000   0.000000   0.000000   0.000000   0.000000   0.000000
    25  N    0.000000  -0.000241  -0.000008  -0.000387  -0.031893  -0.000013
    26  C    0.000000  -0.000001   0.000000   0.000031   0.000372   0.000374
    27  H    0.000000   0.000793   0.000003   0.000907   0.088347  -0.001757
    28  H    0.000000   0.000000   0.000000   0.000000   0.000000   0.000000
    29  O    0.000000   0.000000   0.000000  -0.000002  -0.000046   0.000238
    30  O    0.000000  -0.006889   0.000145   0.019569  -0.000025   0.000018
             13         14         15         16         17         18
     1  C    0.010129  -0.000153   0.000027   0.000000   0.000001   0.000000
     2  N    0.000404   0.000001   0.000038   0.000000   0.000000   0.000000
     3  C    0.004238   0.000002   0.000111   0.000000   0.000000   0.000000
     4  C   -0.120350   0.005505   0.009995   0.000000   0.000001   0.000000
     5  C    0.156553   0.003147  -0.009085   0.000000   0.000000   0.000000
     6  N   -0.060555  -0.000051   0.002504   0.000000   0.000000   0.000000
     7  H   -0.000068   0.000000  -0.000007   0.000000   0.000000   0.000000
     8  N   -0.000136  -0.000001   0.000001   0.000002  -0.000040  -0.000002
     9  H    0.000002   0.000000   0.000000   0.000000   0.000004   0.000000
    10  H    0.000016  -0.000001   0.000000  -0.000009   0.000420   0.000024
    11  N   -0.086477  -0.033320   0.002862   0.000000  -0.000016   0.000000
    12  C    0.264373   0.376588  -0.014527   0.000000   0.000001   0.000000
    13  N    7.297725  -0.052623   0.300294   0.000000   0.000000   0.000000
    14  H   -0.052623   0.502021   0.000698   0.000000   0.000000   0.000000
    15  H    0.300294   0.000698   0.365271   0.000000   0.000000   0.000000
    16  C    0.000000   0.000000   0.000000   5.084029   0.338158   0.371802
    17  C    0.000000   0.000000   0.000000   0.338158   5.361943  -0.034828
    18  H    0.000000   0.000000   0.000000   0.371802  -0.034828   0.559030
    19  H    0.000000   0.000000   0.000000   0.373195  -0.033880  -0.032969
    20  H    0.000000   0.000000   0.000000   0.361807  -0.038938  -0.029711
    21  C   -0.000001  -0.000001   0.000000  -0.038508   0.160290  -0.003460
    22  C    0.000000   0.000000   0.000000  -0.047469   0.535456   0.000310
    23  N    0.000000   0.000005   0.000000   0.004695  -0.028710  -0.000083
    24  H    0.000000   0.000000   0.000000  -0.004445  -0.017859   0.000095
    25  N   -0.000023   0.000120   0.000000   0.006244  -0.175104   0.000088
    26  C    0.000005   0.000394   0.000000   0.000241  -0.003906  -0.000006
    27  H    0.000378  -0.000605  -0.000008  -0.000035   0.004277   0.000000
    28  H    0.000000   0.000000   0.000000  -0.000094   0.002583   0.000002
    29  O    0.000002   0.001013   0.000000   0.000001   0.000034   0.000000
    30  O    0.000000   0.000000   0.000000   0.005906  -0.119818   0.002774
             19         20         21         22         23         24
     1  C    0.000000   0.000000  -0.000038   0.000000   0.000000   0.000000
     2  N    0.000000   0.000000  -0.000001   0.000000   0.000000   0.000000
     3  C    0.000000   0.000000   0.000000   0.000000   0.000000   0.000000
     4  C    0.000000   0.000000   0.000129   0.000000   0.000000   0.000000
     5  C    0.000000   0.000000   0.000006   0.000000   0.000000   0.000000
     6  N    0.000000   0.000000   0.000000   0.000000   0.000000   0.000000
     7  H    0.000000   0.000000   0.000000   0.000000   0.000000   0.000000
     8  N    0.000000   0.000000   0.000016   0.000001   0.000000   0.000000
     9  H    0.000000   0.000000   0.000036   0.000000   0.000000   0.000000
    10  H   -0.000005   0.000000   0.004115  -0.000033   0.000005   0.000000
    11  N    0.000000   0.000000  -0.000218  -0.000003  -0.000006   0.000000
    12  C    0.000000   0.000000   0.000060   0.000000   0.000004   0.000000
    13  N    0.000000   0.000000  -0.000001   0.000000   0.000000   0.000000
    14  H    0.000000   0.000000  -0.000001   0.000000   0.000005   0.000000
    15  H    0.000000   0.000000   0.000000   0.000000   0.000000   0.000000
    16  C    0.373195   0.361807  -0.038508  -0.047469   0.004695  -0.004445
    17  C   -0.033880  -0.038938   0.160290   0.535456  -0.028710  -0.017859
    18  H   -0.032969  -0.029711  -0.003460   0.000310  -0.000083   0.000095
    19  H    0.551375  -0.029447  -0.003974   0.000291  -0.000080   0.000089
    20  H   -0.029447   0.596689   0.006799  -0.005192   0.000123   0.004408
    21  C   -0.003974   0.006799   4.818976  -0.034611  -0.013044   0.003618
    22  C    0.000291  -0.005192  -0.034611   4.928604   0.183565   0.362686
    23  N   -0.000080   0.000123  -0.013044   0.183565   7.513283  -0.049196
    24  H    0.000089   0.004408   0.003618   0.362686  -0.049196   0.531354
    25  N    0.000079  -0.000061   0.022813   0.000266  -0.183773  -0.000309
    26  C   -0.000008  -0.000024   0.006657  -0.026027   0.065925   0.002004
    27  H    0.000003   0.000001  -0.013209  -0.000339   0.002061   0.000009
    28  H    0.000002  -0.000006  -0.000041  -0.019485   0.307414  -0.004081
    29  O    0.000000   0.000000  -0.000145   0.001261  -0.113475  -0.000072
    30  O    0.002474   0.000324   0.597634   0.003566   0.000003  -0.000057
             25         26         27         28         29         30
     1  C    0.000984   0.000008  -0.003556   0.000000   0.000000   0.000363
     2  N    0.000001   0.000000  -0.000012   0.000000   0.000000  -0.000002
     3  C    0.000000   0.000000   0.000000   0.000000   0.000000   0.000000
     4  C   -0.000794   0.000144   0.001557   0.000000   0.000025   0.000075
     5  C   -0.000088  -0.000008   0.000874   0.000000  -0.000001   0.000002
     6  N    0.000000   0.000000  -0.000004   0.000000   0.000000   0.000000
     7  H    0.000000   0.000000   0.000000   0.000000   0.000000   0.000000
     8  N   -0.000241  -0.000001   0.000793   0.000000   0.000000  -0.006889
     9  H   -0.000008   0.000000   0.000003   0.000000   0.000000   0.000145
    10  H   -0.000387   0.000031   0.000907   0.000000  -0.000002   0.019569
    11  N   -0.031893   0.000372   0.088347   0.000000  -0.000046  -0.000025
    12  C   -0.000013   0.000374  -0.001757   0.000000   0.000238   0.000018
    13  N   -0.000023   0.000005   0.000378   0.000000   0.000002   0.000000
    14  H    0.000120   0.000394  -0.000605   0.000000   0.001013   0.000000
    15  H    0.000000   0.000000  -0.000008   0.000000   0.000000   0.000000
    16  C    0.006244   0.000241  -0.000035  -0.000094   0.000001   0.005906
    17  C   -0.175104  -0.003906   0.004277   0.002583   0.000034  -0.119818
    18  H    0.000088  -0.000006   0.000000   0.000002   0.000000   0.002774
    19  H    0.000079  -0.000008   0.000003   0.000002   0.000000   0.002474
    20  H   -0.000061  -0.000024   0.000001  -0.000006   0.000000   0.000324
    21  C    0.022813   0.006657  -0.013209  -0.000041  -0.000145   0.597634
    22  C    0.000266  -0.026027  -0.000339  -0.019485   0.001261   0.003566
    23  N   -0.183773   0.065925   0.002061   0.307414  -0.113475   0.000003
    24  H   -0.000309   0.002004   0.000009  -0.004081  -0.000072  -0.000057
    25  N    8.022111   0.068695   0.238889   0.006356  -0.108084  -0.124301
    26  C    0.068695   4.575279  -0.018947  -0.009021   0.650936   0.000674
    27  H    0.238889  -0.018947   0.297259   0.000005   0.000868   0.002132
    28  H    0.006356  -0.009021   0.000005   0.364783   0.005035   0.000004
    29  O   -0.108084   0.650936   0.000868   0.005035   8.001058  -0.000012
    30  O   -0.124301   0.000674   0.002132   0.000004  -0.000012   8.075706
 Mulliken atomic charges:
              1
     1  C    0.428508
     2  N   -0.420865
     3  C    0.110394
     4  C    0.145359
     5  C    0.400146
     6  N   -0.354590
     7  H    0.154781
     8  N   -0.734314
     9  H    0.331496
    10  H    0.355585
    11  N   -0.483154
    12  C    0.295348
    13  N   -0.713887
    14  H    0.197261
    15  H    0.341825
    16  C   -0.455522
    17  C    0.049930
    18  H    0.166935
    19  H    0.172853
    20  H    0.133226
    21  C    0.486101
    22  C    0.117153
    23  N   -0.688716
    24  H    0.171756
    25  N   -0.741569
    26  C    0.686206
    27  H    0.400110
    28  H    0.346543
    29  O   -0.438635
    30  O   -0.460265
 Sum of Mulliken atomic charges =   0.00000
 Mulliken charges with hydrogens summed into heavy atoms:
              1
     1  C    0.428508
     2  N   -0.420865
     3  C    0.265175
     4  C    0.145359
     5  C    0.400146
     6  N   -0.354590
     8  N   -0.047233
    11  N   -0.483154
    12  C    0.492608
    13  N   -0.372062
    16  C    0.017492
    17  C    0.049930
    21  C    0.486101
    22  C    0.288909
    23  N   -0.342173
    25  N   -0.341459
    26  C    0.686206
    29  O   -0.438635
    30  O   -0.460265
 Sum of Mulliken charges with hydrogens summed into heavy atoms =   0.00000
 Electronic spatial extent (au):  <R**2>=           6240.3881
 Charge=              0.0000 electrons
 Dipole moment (field-independent basis, Debye):
    X=              5.3180    Y=              1.8382    Z=             -0.1516  Tot=              5.6287
 Quadrupole moment (field-independent basis, Debye-Ang):
   XX=            -87.9308   YY=           -106.6999   ZZ=           -110.0369
   XY=            -11.2238   XZ=             -5.1409   YZ=              8.5446
 Traceless Quadrupole moment (field-independent basis, Debye-Ang):
   XX=             13.6251   YY=             -5.1440   ZZ=             -8.4810
   XY=            -11.2238   XZ=             -5.1409   YZ=              8.5446
 Octapole moment (field-independent basis, Debye-Ang**2):
  XXX=            236.7948  YYY=             10.0420  ZZZ=              0.6814  XYY=            -24.2003
  XXY=             44.9079  XXZ=             -7.6420  XZZ=              4.7446  YZZ=              3.7659
  YYZ=             11.0736  XYZ=            -10.2983
 Hexadecapole moment (field-independent basis, Debye-Ang**3):
 XXXX=          -5854.2366 YYYY=          -1626.2477 ZZZZ=           -250.0178 XXXY=             89.3384
 XXXZ=            -91.2470 YYYX=           -176.0914 YYYZ=             85.3204 ZZZX=             -8.6209
 ZZZY=             -3.5325 XXYY=          -1193.6866 XXZZ=          -1125.0921 YYZZ=           -310.6367
 XXYZ=            -15.1047 YYXZ=            -44.5642 ZZXY=             -8.1423
 N-N= 1.363129430352D+03 E-N=-4.875177038404D+03  KE= 9.161049064786D+02
 Calling FoFJK, ICntrl=      2127 FMM=F ISym2X=0 I1Cent= 0 IOpClX= 0 NMat=1 NMatS=1 NMatT=0.
 ***** Axes restored to original set *****
 -------------------------------------------------------------------
 Center     Atomic                   Forces (Hartrees/Bohr)
 Number     Number              X              Y              Z
 -------------------------------------------------------------------
      1        6           0.007283859   -0.001348677    0.006191122
      2        7          -0.003901006    0.000472369   -0.000861799
      3        6           0.001345612   -0.000320241    0.001541429
      4        6          -0.001944075   -0.000079616    0.002813404
      5        6           0.002126755   -0.000905499    0.001619544
      6        7           0.000231376    0.000137362   -0.001280958
      7        1          -0.000063980    0.000034599   -0.000024668
      8        7          -0.008933601   -0.005874852   -0.005357523
      9        1           0.000415283    0.001540743    0.000168049
     10        1           0.002144289    0.006790944    0.004288617
     11        7          -0.002899693    0.002759121   -0.001190175
     12        6          -0.002608262    0.001349001   -0.006274943
     13        7           0.004956317   -0.000866893    0.000448541
     14        1           0.000702891   -0.000566498    0.000317424
     15        1           0.000492991   -0.000099953   -0.000356547
     16        6           0.000509850    0.000009111   -0.000108454
     17        6          -0.000982094    0.001348018    0.001848601
     18        1           0.000088408   -0.000005792    0.000208813
     19        1           0.000023939    0.000034614    0.000075454
     20        1           0.000061058    0.000005537    0.000173545
     21        6           0.008001322   -0.004740856   -0.014657584
     22        6          -0.000645978   -0.000673243   -0.001865703
     23        7           0.002982691   -0.000604616    0.000069527
     24        1           0.000110078   -0.000009203    0.000079650
     25        7           0.015282172    0.001005161    0.005020237
     26        6          -0.003310236    0.003061176    0.006999802
     27        1          -0.018301918   -0.001675196   -0.003718907
     28        1           0.000466430   -0.000042180    0.000182923
     29        8           0.000401717   -0.000149726   -0.002715773
     30        8          -0.004036195   -0.000584716    0.006366354
 -------------------------------------------------------------------
 Cartesian Forces:  Max     0.018301918 RMS     0.004095006

 GradGradGradGradGradGradGradGradGradGradGradGradGradGradGradGradGradGrad
 Berny optimization.
 Internal  Forces:  Max     0.016674159 RMS     0.002204777
 Search for a local minimum.
 Step number   1 out of a maximum of  171
 All quantities printed in internal units (Hartrees-Bohrs-Radians)
 Mixed Optimization -- RFO/linear search
 Second derivative matrix not updated -- first step.
     Eigenvalues ---    0.00508   0.00742   0.01388   0.01463   0.01572
     Eigenvalues ---    0.01686   0.01752   0.01778   0.01803   0.01828
     Eigenvalues ---    0.01844   0.01905   0.01922   0.01989   0.02034
     Eigenvalues ---    0.02061   0.02136   0.02145   0.02204   0.02309
     Eigenvalues ---    0.02313   0.02316   0.02346   0.02682   0.03275
     Eigenvalues ---    0.03652   0.05456   0.07123   0.07301   0.11144
     Eigenvalues ---    0.16000   0.16000   0.16000   0.16000   0.16000
     Eigenvalues ---    0.16000   0.16000   0.16000   0.16000   0.16052
     Eigenvalues ---    0.19693   0.20467   0.21550   0.22212   0.22332
     Eigenvalues ---    0.23143   0.23314   0.24199   0.24459   0.24595
     Eigenvalues ---    0.25000   0.25000   0.25000   0.32189   0.34119
     Eigenvalues ---    0.34120   0.34333   0.35362   0.35625   0.35681
     Eigenvalues ---    0.35734   0.36311   0.40009   0.40857   0.42222
     Eigenvalues ---    0.44128   0.45065   0.45853   0.45978   0.46118
     Eigenvalues ---    0.46240   0.46432   0.46516   0.46906   0.47415
     Eigenvalues ---    0.50575   0.51872   0.52389   0.53130   0.54000
     Eigenvalues ---    0.54682   0.57713   0.82423   0.857461000.00000
     Eigenvalues --- 1000.000001000.000001000.000001000.000001000.00000
     Eigenvalues --- 1000.000001000.000001000.000001000.000001000.00000
     Eigenvalues --- 1000.000001000.000001000.000001000.000001000.00000
     Eigenvalues --- 1000.000001000.000001000.000001000.000001000.00000
     Eigenvalues --- 1000.000001000.000001000.000001000.000001000.00000
     Eigenvalues --- 1000.000001000.000001000.000001000.000001000.00000
     Eigenvalues --- 1000.000001000.000001000.000001000.000001000.00000
     Eigenvalues --- 1000.000001000.000001000.000001000.000001000.00000
     Eigenvalues --- 1000.000001000.000001000.000001000.000001000.00000
     Eigenvalues --- 1000.000001000.000001000.000001000.000001000.00000
     Eigenvalues --- 1000.000001000.000001000.000001000.000001000.00000
     Eigenvalues --- 1000.000001000.000001000.000001000.000001000.00000
     Eigenvalues --- 1000.000001000.000001000.000001000.000001000.00000
     Eigenvalues --- 1000.000001000.000001000.000001000.000001000.00000
     Eigenvalues --- 1000.000001000.000001000.000001000.000001000.00000
     Eigenvalues --- 1000.00000
 RFO step:  Lambda=-3.39836933D-03 EMin= 5.07670916D-03
 Linear search not attempted -- first point.
 Iteration  1 RMS(Cart)=  0.08868108 RMS(Int)=  0.00166813
 Iteration  2 RMS(Cart)=  0.00330638 RMS(Int)=  0.00042390
 Iteration  3 RMS(Cart)=  0.00000494 RMS(Int)=  0.00042388
 Iteration  4 RMS(Cart)=  0.00000002 RMS(Int)=  0.00042388
 Variable       Old X    -DE/DX   Delta X   Delta X   Delta X     New X
                                 (Linear)    (Quad)   (Total)
    R1        2.56896   0.00244   0.00000   0.00492   0.00491   2.57387
    R2        2.66603   0.00362   0.00000   0.00818   0.00830   2.67434
    R3        2.56011  -0.00459   0.00000  -0.00860  -0.00829   2.55182
    R4        2.56115  -0.00133   0.00000  -0.00285  -0.00272   2.55842
    R5        2.55232   0.00083   0.00000   0.00079   0.00094   2.55326
    R6        2.04584   0.00005   0.00000   0.00013   0.00013   2.04597
    R7        2.65439  -0.00186   0.00000  -0.00303  -0.00323   2.65116
    R8        2.64485   0.00190   0.00000   0.00406   0.00391   2.64876
    R9        2.55090  -0.00054   0.00000  -0.00130  -0.00129   2.54961
   R10        2.61591   0.00276   0.00000   0.00532   0.00548   2.62139
   R11        1.90253  -0.00016   0.00000  -0.00035  -0.00035   1.90219
   R12        1.90188   0.00290   0.00000   0.00685   0.00691   1.90879
   R13        4.29394   0.00069   0.00000   0.00111   0.00088   4.29482
   R14        2.50620   0.00137   0.00000   0.00208   0.00204   2.50825
   R15        3.69967  -0.00195   0.00000  -0.03737  -0.03748   3.66219
   R16        2.63118  -0.00500   0.00000  -0.01145  -0.01128   2.61989
   R17        2.03598   0.00002   0.00000   0.00006   0.00006   2.03604
   R18        1.90348  -0.00007   0.00000  -0.00014  -0.00014   1.90333
   R19        2.83799   0.00055   0.00000   0.00170   0.00170   2.83969
   R20        2.07130   0.00012   0.00000   0.00034   0.00034   2.07163
   R21        2.07128   0.00004   0.00000   0.00012   0.00012   2.07140
   R22        2.06772   0.00007   0.00000   0.00021   0.00021   2.06793
   R23        2.76855   0.00015   0.00000   0.00105   0.00098   2.76953
   R24        2.56400   0.00017   0.00000  -0.00007   0.00003   2.56403
   R25        2.66491  -0.00454   0.00000  -0.00734  -0.00759   2.65732
   R26        2.35767   0.00984   0.00000   0.01260   0.01270   2.37037
   R27        2.62179  -0.00198   0.00000  -0.00501  -0.00484   2.61695
   R28        2.04673   0.00012   0.00000   0.00033   0.00033   2.04705
   R29        2.63268   0.00235   0.00000   0.00442   0.00450   2.63719
   R30        1.90698   0.00017   0.00000   0.00036   0.00036   1.90734
   R31        2.62636  -0.00278   0.00000  -0.00537  -0.00547   2.62089
   R32        1.91359   0.01667   0.00000   0.03634   0.03617   1.94976
   R33        2.34957   0.00231   0.00000   0.00268   0.00268   2.35226
    A1        2.06730  -0.00230   0.00000  -0.00853  -0.00867   2.05863
    A2        2.07222   0.00080   0.00000  -0.00189  -0.00155   2.07067
    A3        2.14366   0.00149   0.00000   0.01042   0.01015   2.15381
    A4        2.07620   0.00039   0.00000   0.00360   0.00348   2.07968
    A5        2.22738   0.00044   0.00000   0.00095   0.00100   2.22837
    A6        2.02332  -0.00016   0.00000  -0.00014  -0.00019   2.02313
    A7        2.03249  -0.00027   0.00000  -0.00081  -0.00086   2.03163
    A8        2.03806   0.00131   0.00000   0.00458   0.00478   2.04285
    A9        2.31005   0.00295   0.00000   0.01341   0.01314   2.32319
   A10        1.93507  -0.00426   0.00000  -0.01799  -0.01793   1.91714
   A11        2.20081  -0.00023   0.00000  -0.00042  -0.00060   2.20021
   A12        1.83232   0.00150   0.00000   0.00681   0.00671   1.83903
   A13        2.25005  -0.00127   0.00000  -0.00638  -0.00613   2.24393
   A14        1.95662   0.00039   0.00000  -0.00017  -0.00021   1.95641
   A15        2.07335   0.00018   0.00000  -0.00606  -0.00598   2.06737
   A16        2.10513   0.00002   0.00000   0.01445   0.01364   2.11877
   A17        2.10471  -0.00020   0.00000  -0.00839  -0.00826   2.09644
   A18        2.28639   0.00759   0.00000   0.03690   0.03802   2.32442
   A19        1.82439   0.00401   0.00000   0.01881   0.01886   1.84326
   A20        2.29863  -0.00166   0.00000   0.00421   0.00313   2.30176
   A21        2.13051  -0.00211   0.00000  -0.01685  -0.01616   2.11436
   A22        1.96437  -0.00293   0.00000  -0.01390  -0.01411   1.95026
   A23        2.18494   0.00058   0.00000   0.00155   0.00166   2.18659
   A24        2.13387   0.00235   0.00000   0.01235   0.01246   2.14633
   A25        1.86862   0.00167   0.00000   0.00627   0.00626   1.87487
   A26        2.18835  -0.00027   0.00000   0.00036   0.00036   2.18871
   A27        2.22622  -0.00141   0.00000  -0.00663  -0.00663   2.21960
   A28        1.93520   0.00021   0.00000   0.00127   0.00127   1.93647
   A29        1.93517   0.00004   0.00000   0.00031   0.00031   1.93548
   A30        1.94402   0.00016   0.00000   0.00092   0.00092   1.94494
   A31        1.85745  -0.00011   0.00000  -0.00059  -0.00059   1.85686
   A32        1.89462  -0.00021   0.00000  -0.00140  -0.00140   1.89322
   A33        1.89462  -0.00011   0.00000  -0.00065  -0.00065   1.89397
   A34        2.05666   0.00122   0.00000   0.00326   0.00335   2.06002
   A35        2.16070  -0.00028   0.00000  -0.00267  -0.00258   2.15812
   A36        2.06582  -0.00094   0.00000  -0.00059  -0.00078   2.06504
   A37        2.00704   0.00280   0.00000   0.00820   0.00825   2.01529
   A38        2.17726  -0.00190   0.00000  -0.01899  -0.01826   2.15900
   A39        2.09888  -0.00090   0.00000   0.01079   0.00992   2.10880
   A40        2.13591  -0.00066   0.00000  -0.00233  -0.00229   2.13362
   A41        2.13323   0.00027   0.00000   0.00079   0.00076   2.13399
   A42        2.01404   0.00039   0.00000   0.00154   0.00152   2.01555
   A43        2.15925  -0.00098   0.00000  -0.00397  -0.00395   2.15530
   A44        2.11021   0.00004   0.00000  -0.00076  -0.00077   2.10944
   A45        2.01373   0.00094   0.00000   0.00473   0.00472   2.01844
   A46        2.22804  -0.00223   0.00000  -0.01197  -0.01174   2.21630
   A47        2.03021   0.00181   0.00000   0.02681   0.02565   2.05586
   A48        2.02493   0.00042   0.00000  -0.01485  -0.01391   2.01102
   A49        1.97030   0.00200   0.00000   0.01066   0.01040   1.98070
   A50        2.14777  -0.00238   0.00000  -0.01076  -0.01066   2.13712
   A51        2.16511   0.00037   0.00000   0.00010   0.00020   2.16531
   A52        3.01284   0.00019   0.00000   0.00908   0.00698   3.01982
   A53        1.82633   0.00588   0.00000   0.05358   0.05260   1.87893
    D1        0.00000  -0.00024   0.00000   0.00938   0.00960   0.00960
    D2       -3.14159  -0.00034   0.00000   0.02122   0.02129  -3.12030
    D3        0.00000   0.00022   0.00000  -0.02001  -0.02021  -0.02021
    D4       -3.14159   0.00051   0.00000  -0.01410  -0.01433   3.12726
    D5        3.14159   0.00033   0.00000  -0.03238  -0.03251   3.10909
    D6        0.00000   0.00062   0.00000  -0.02646  -0.02663  -0.02663
    D7        0.00000  -0.00028   0.00000  -0.04522  -0.04579  -0.04579
    D8        3.14159   0.00161   0.00000  -0.00776  -0.00845   3.13315
    D9        3.14159  -0.00038   0.00000  -0.03283  -0.03341   3.10818
   D10        0.00000   0.00150   0.00000   0.00464   0.00393   0.00393
   D11        0.00000   0.00009   0.00000   0.00885   0.00872   0.00872
   D12       -3.14159   0.00010   0.00000  -0.00182  -0.00194   3.13965
   D13        0.00000   0.00007   0.00000  -0.01370  -0.01381  -0.01381
   D14        3.14159   0.00007   0.00000  -0.00298  -0.00311   3.13848
   D15        0.00000  -0.00006   0.00000   0.01553   0.01557   0.01557
   D16        3.14159   0.00004   0.00000   0.02086   0.02087  -3.12072
   D17        3.14159  -0.00028   0.00000   0.01085   0.01101  -3.13059
   D18        0.00000  -0.00019   0.00000   0.01617   0.01631   0.01631
   D19       -3.14159  -0.00009   0.00000  -0.02561  -0.02577   3.11583
   D20       -0.26320   0.00083   0.00000  -0.00092  -0.00070  -0.26390
   D21        0.00000   0.00019   0.00000  -0.01996  -0.02020  -0.02020
   D22        2.87839   0.00111   0.00000   0.00473   0.00486   2.88326
   D23        0.00000  -0.00009   0.00000   0.00071   0.00087   0.00088
   D24       -3.14159  -0.00020   0.00000  -0.00590  -0.00566   3.13593
   D25        0.00000   0.00012   0.00000  -0.00598  -0.00623  -0.00623
   D26        3.14159  -0.00012   0.00000  -0.01003  -0.01005   3.13154
   D27       -3.14159   0.00021   0.00000  -0.00045  -0.00075   3.14085
   D28        0.00000  -0.00003   0.00000  -0.00450  -0.00457  -0.00457
   D29        1.72964   0.00003   0.00000   0.00663   0.00569   1.73534
   D30       -1.41195   0.00194   0.00000   0.04477   0.04364  -1.36830
   D31       -2.96282   0.00480   0.00000   0.10898   0.10855  -2.85427
   D32        0.00000  -0.00011   0.00000   0.01614   0.01631   0.01631
   D33       -3.14159   0.00038   0.00000   0.01871   0.01870  -3.12289
   D34       -2.91031  -0.00087   0.00000  -0.00881  -0.00830  -2.91861
   D35        0.23128  -0.00039   0.00000  -0.00624  -0.00591   0.22537
   D36        1.23536   0.00082   0.00000   0.07411   0.07405   1.30941
   D37       -2.20799   0.00262   0.00000   0.10744   0.10715  -2.10085
   D38        0.00000  -0.00001   0.00000  -0.00665  -0.00653  -0.00653
   D39       -3.14159   0.00024   0.00000  -0.00248  -0.00261   3.13898
   D40        3.14159  -0.00048   0.00000  -0.00914  -0.00885   3.13274
   D41        0.00000  -0.00023   0.00000  -0.00497  -0.00494  -0.00493
   D42        1.03003   0.00004   0.00000   0.00237   0.00241   1.03243
   D43       -2.11141   0.00000   0.00000  -0.00114  -0.00118  -2.11258
   D44       -1.02934   0.00002   0.00000   0.00209   0.00213  -1.02721
   D45        2.11241  -0.00002   0.00000  -0.00141  -0.00145   2.11096
   D46       -3.14123   0.00002   0.00000   0.00208   0.00212  -3.13912
   D47        0.00051  -0.00002   0.00000  -0.00142  -0.00146  -0.00095
   D48       -3.14158  -0.00003   0.00000   0.00048   0.00067  -3.14091
   D49        0.00022   0.00009   0.00000   0.01492   0.01486   0.01508
   D50       -0.00013   0.00001   0.00000   0.00378   0.00406   0.00392
   D51       -3.14152   0.00012   0.00000   0.01823   0.01824  -3.12328
   D52        3.14139   0.00013   0.00000   0.00911   0.00911  -3.13269
   D53       -0.00005   0.00002   0.00000   0.00204   0.00204   0.00200
   D54       -0.00005   0.00009   0.00000   0.00559   0.00552   0.00547
   D55       -3.14148  -0.00002   0.00000  -0.00148  -0.00155   3.14016
   D56        0.00018  -0.00013   0.00000  -0.01565  -0.01582  -0.01564
   D57       -3.14147  -0.00055   0.00000  -0.01666  -0.01744   3.12428
   D58        3.14157  -0.00024   0.00000  -0.02940  -0.02956   3.11201
   D59       -0.00007  -0.00066   0.00000  -0.03041  -0.03119  -0.03126
   D60       -2.27987  -0.00138   0.00000  -0.03067  -0.03251  -2.31238
   D61        0.86194  -0.00126   0.00000  -0.01551  -0.01759   0.84435
   D62        0.00022  -0.00009   0.00000  -0.00514  -0.00524  -0.00502
   D63        3.14153  -0.00014   0.00000  -0.00871  -0.00867   3.13286
   D64       -3.14152   0.00001   0.00000   0.00148   0.00137  -3.14014
   D65       -0.00021  -0.00003   0.00000  -0.00209  -0.00206  -0.00227
   D66       -0.00018  -0.00002   0.00000  -0.00504  -0.00498  -0.00516
   D67        3.14139  -0.00030   0.00000  -0.01606  -0.01581   3.12558
   D68       -3.14150   0.00002   0.00000  -0.00165  -0.00171   3.13997
   D69        0.00006  -0.00026   0.00000  -0.01267  -0.01254  -0.01247
   D70       -0.00002   0.00014   0.00000   0.01602   0.01604   0.01601
   D71       -3.14159   0.00042   0.00000   0.02717   0.02706  -3.11452
   D72       -3.14157   0.00055   0.00000   0.01703   0.01762  -3.12394
   D73        0.00005   0.00083   0.00000   0.02818   0.02865   0.02871
   D74       -1.63388   0.00188   0.00000   0.02105   0.02127  -1.61261
   D75        1.50767   0.00152   0.00000   0.02016   0.01984   1.52751
         Item               Value     Threshold  Converged?
 Maximum Force            0.016674     0.000450     NO 
 RMS     Force            0.002205     0.000300     NO 
 Maximum Displacement     0.349879     0.001800     NO 
 RMS     Displacement     0.089533     0.001200     NO 
 Predicted change in Energy=-1.816294D-03
 GradGradGradGradGradGradGradGradGradGradGradGradGradGradGradGradGradGrad

                          Input orientation:                          
 ---------------------------------------------------------------------
 Center     Atomic      Atomic             Coordinates (Angstroms)
 Number     Number       Type             X           Y           Z
 ---------------------------------------------------------------------
      1          6           0        0.424611   -0.255913    1.303255
      2          7           0       -0.814998   -0.181968    1.862749
      3          6           0       -1.882134    0.074966    1.070197
      4          6           0        0.536259   -0.046358   -0.091882
      5          6           0       -0.651497    0.198311   -0.797289
      6          7           0       -1.890019    0.269285   -0.266861
      7          1           0       -2.842000    0.120355    1.568985
      8          7           0        1.478345   -0.537406    2.099426
      9          1           0        1.317960   -0.643773    3.087451
     10          1           0        2.414628   -0.609389    1.727304
     11          7           0        1.625088   -0.033438   -0.974456
     12          6           0        1.107603    0.185715   -2.176923
     13          7           0       -0.269325    0.338287   -2.123417
     14          1           0        1.668395    0.240107   -3.095289
     15          1           0       -0.892506    0.514760   -2.894751
     16          6           0        6.961775    0.653138    2.393177
     17          6           0        6.428286    0.265791    1.042822
     18          1           0        6.496246    0.054706    3.184980
     19          1           0        6.729465    1.700158    2.619669
     20          1           0        8.046280    0.517958    2.448555
     21          6           0        4.987169    0.393878    0.808999
     22          6           0        7.206596   -0.191216    0.029732
     23          7           0        6.685119   -0.530386   -1.207517
     24          1           0        8.278509   -0.309470    0.132010
     25          7           0        4.546474    0.016102   -0.471801
     26          6           0        5.328469   -0.440795   -1.522165
     27          1           0        3.535811    0.077175   -0.670246
     28          1           0        7.284649   -0.861256   -1.949017
     29          8           0        4.882799   -0.735169   -2.646511
     30          8           0        4.178342    0.822696    1.666496
 ---------------------------------------------------------------------
                    Distance matrix (angstroms):
                    1          2          3          4          5
     1  C    0.000000
     2  N    1.362032   0.000000
     3  C    2.341980   1.353859   0.000000
     4  C    1.415199   2.380098   2.685846   0.000000
     5  C    2.403459   2.692053   2.239907   1.402934   0.000000
     6  N    2.845806   2.427868   1.351128   2.452972   1.349195
     7  H    3.298930   2.070371   1.082679   3.768143   3.225466
     8  N    1.350363   2.332761   3.567511   2.435259   3.669941
     9  H    2.032698   2.502532   3.850520   3.328080   4.436109
    10  H    2.065170   3.260600   4.400260   2.674829   4.053031
    11  N    2.584301   3.745105   4.061153   1.401661   2.295198
    12  C    3.573955   4.488935   4.415266   2.174325   2.235616
    13  N    3.546365   4.056840   3.587431   2.219020   1.387179
    14  H    4.597850   5.561252   5.475837   3.222459   3.265647
    15  H    4.466765   4.808872   4.110182   3.195668   2.134847
    16  C    6.689455   7.839448   8.960987   6.924743   8.267275
    17  C    6.031924   7.303282   8.312656   6.008409   7.315318
    18  H    6.364127   7.433613   8.641179   6.802168   8.183478
    19  H    6.731295   7.812441   8.899536   6.982738   8.271018
    20  H    7.745994   8.908160  10.033420   7.948125   9.289187
    21  C    4.635024   5.925127   6.881661   4.562456   5.866256
    22  C    6.900824   8.228366   9.151963   6.673019   7.911088
    23  N    6.750798   8.111701   8.885508   6.267967   7.384119
    24  H    7.940931   9.257623  10.211104   7.749954   8.992576
    25  N    4.496061   5.851046   6.611219   4.028655   5.211337
    26  C    5.662597   7.019033   7.679788   5.016630   6.057549
    27  H    3.699354   5.041107   5.690630   3.057300   4.190985
    28  H    7.616025   8.977487   9.696498   7.046544   8.088978
    29  O    5.975432   7.287273   7.761092   5.088517   5.909267
    30  O    3.922479   5.097187   6.135474   4.136656   5.457787
                    6          7          8          9         10
     6  N    0.000000
     7  H    2.073350   0.000000
     8  N    4.194752   4.402204   0.000000
     9  H    4.730350   4.493874   1.006593   0.000000
    10  H    4.824805   5.309400   1.010090   1.747530   0.000000
    11  N    3.598375   5.142725   3.118376   4.118971   2.873082
    12  C    3.555426   5.443846   4.352874   5.333472   4.193267
    13  N    2.465402   4.505550   4.653342   5.535075   4.788501
    14  H    4.545675   6.489488   5.256016   6.255423   4.953373
    15  H    2.821541   4.886821   5.627592   6.481905   5.793464
    16  C    9.250805   9.852774   5.618868   5.832378   4.765911
    17  C    8.420776   9.286345   5.124788   5.578821   4.164602
    18  H    9.071421   9.477267   5.168012   5.226091   4.384684
    19  H    9.201899   9.757697   5.731631   5.915844   4.974750
    20  H   10.303657  10.930982   6.661340   6.857703   5.788491
    21  C    6.961947   7.870723   3.852835   4.441977   2.909948
    22  C    9.113091  10.170578   6.100520   6.650600   5.100939
    23  N    8.663561   9.944769   6.168178   6.875028   5.182327
    24  H   10.192792  11.221201   7.082719   7.569387   6.084407
    25  N    6.444729   7.665848   4.041162   4.850465   3.126031
    26  C    7.361153   8.753666   5.286654   6.113423   4.367831
    27  H    5.444194   6.759622   3.504563   4.422546   2.734350
    28  H    9.395866  10.765172   7.085756   7.811190   6.107036
    29  O    7.248636   8.841654   5.844086   6.752388   5.023738
    30  O    6.392898   7.056061   3.054061   3.514460   2.272720
                   11         12         13         14         15
    11  N    0.000000
    12  C    1.327307   0.000000
    13  N    2.246573   1.386388   0.000000
    14  H    2.138839   1.077424   2.170007   0.000000
    15  H    3.213461   2.150345   1.007201   2.583382   0.000000
    16  C    6.347643   7.441480   8.531562   7.636342   9.469480
    17  C    5.218205   6.219552   7.408665   6.307232   8.316277
    18  H    6.406002   7.602936   8.604211   7.923654   9.579584
    19  H    6.479024   7.543617   8.563563   7.772189   9.482005
    20  H    7.297449   8.345698   9.491285   8.455106  10.414068
    21  C    3.829739   4.900009   6.019376   5.126536   6.950033
    22  C    5.673317   6.496855   7.797809   6.373654   8.639818
    23  N    5.089715   5.706245   7.068080   5.415243   7.833230
    24  H    6.750442   7.549719   8.864085   7.376387   9.692685
    25  N    2.964728   3.842140   5.101328   3.900795   5.975102
    26  C    3.765762   4.317051   5.683641   4.041595   6.441864
    27  H    1.937948   2.859729   4.081537   3.065064   4.974926
    28  H    5.802214   6.269289   7.650611   5.836887   8.345879
    29  O    3.728388   3.914160   5.288697   3.388946   5.914228
    30  O    3.771831   4.960550   5.863432   5.414225   6.827393
                   16         17         18         19         20
    16  C    0.000000
    17  C    1.502700   0.000000
    18  H    1.096262   2.153606   0.000000
    19  H    1.096137   2.152803   1.755414   0.000000
    20  H    1.094300   2.158142   1.777506   1.777885   0.000000
    21  C    2.544779   1.465570   2.835072   2.832046   3.472996
    22  C    2.521655   1.356825   3.243557   3.242333   2.656822
    23  N    3.800298   2.400810   4.435317   4.429972   4.039635
    24  H    2.788060   2.140988   3.553831   3.553391   2.470820
[...]
                 (A) (A) (A) (A) (A) (A) (A) (A) (A) (A) (A) (A)
                 (A) (A) (A) (A) (A)
 The electronic state is 1-A.
 Alpha  occ. eigenvalues --  -19.13202 -19.13075 -14.40725 -14.40439 -14.37187
 Alpha  occ. eigenvalues --  -14.35193 -14.33578 -14.32871 -14.32144 -10.34557
 Alpha  occ. eigenvalues --  -10.31292 -10.27716 -10.27172 -10.26849 -10.26555
 Alpha  occ. eigenvalues --  -10.24697 -10.22219 -10.21886 -10.19158  -1.08019
 Alpha  occ. eigenvalues --   -1.04965  -1.04806  -0.98487  -0.98422  -0.93668
 Alpha  occ. eigenvalues --   -0.92792  -0.89743  -0.85965  -0.82579  -0.77530
 Alpha  occ. eigenvalues --   -0.72307  -0.68259  -0.67184  -0.66904  -0.65467
 Alpha  occ. eigenvalues --   -0.63738  -0.58242  -0.57535  -0.57188  -0.55140
 Alpha  occ. eigenvalues --   -0.52238  -0.51808  -0.50284  -0.48295  -0.47826
 Alpha  occ. eigenvalues --   -0.46929  -0.46439  -0.45006  -0.43341  -0.43041
 Alpha  occ. eigenvalues --   -0.42946  -0.42126  -0.40781  -0.40037  -0.39671
 Alpha  occ. eigenvalues --   -0.39355  -0.35825  -0.35510  -0.31960  -0.29751
 Alpha  occ. eigenvalues --   -0.28913  -0.27745  -0.27637  -0.26921  -0.26784
 Alpha  occ. eigenvalues --   -0.24403  -0.23956  -0.21541
 Alpha virt. eigenvalues --   -0.04521  -0.02379   0.00096   0.00379   0.03222
 Alpha virt. eigenvalues --    0.05707   0.07644   0.10032   0.10554   0.11499
 Alpha virt. eigenvalues --    0.12885   0.14120   0.15408   0.16013   0.16184
 Alpha virt. eigenvalues --    0.17696   0.18146   0.18866   0.19960   0.21209
 Alpha virt. eigenvalues --    0.21642   0.22968   0.23555   0.24584   0.25730
 Alpha virt. eigenvalues --    0.29295   0.31483   0.31994   0.33173   0.33414
 Alpha virt. eigenvalues --    0.35456   0.36852   0.37214   0.38322   0.40861
 Alpha virt. eigenvalues --    0.46169   0.46670   0.47434   0.47876   0.50418
 Alpha virt. eigenvalues --    0.52423   0.53783   0.54523   0.54720   0.55349
 Alpha virt. eigenvalues --    0.57671   0.59140   0.59252   0.60100   0.60242
 Alpha virt. eigenvalues --    0.61977   0.62614   0.62764   0.63375   0.63718
 Alpha virt. eigenvalues --    0.64012   0.64744   0.66116   0.67307   0.68518
 Alpha virt. eigenvalues --    0.69904   0.70519   0.71230   0.71795   0.72955
 Alpha virt. eigenvalues --    0.74302   0.74377   0.75511   0.76910   0.78246
 Alpha virt. eigenvalues --    0.80993   0.81147   0.82147   0.82621   0.86176
 Alpha virt. eigenvalues --    0.86443   0.87543   0.88527   0.88988   0.89914
 Alpha virt. eigenvalues --    0.90007   0.91662   0.92171   0.92935   0.93820
 Alpha virt. eigenvalues --    0.94970   0.95915   0.96298   0.97116   0.98023
 Alpha virt. eigenvalues --    1.00334   1.03145   1.03761   1.03903   1.05413
 Alpha virt. eigenvalues --    1.07587   1.09124   1.11879   1.14780   1.16714
 Alpha virt. eigenvalues --    1.17720   1.19429   1.20866   1.24361   1.27739
 Alpha virt. eigenvalues --    1.29234   1.32581   1.37445   1.39438   1.40264
 Alpha virt. eigenvalues --    1.44956   1.48325   1.49763   1.54213   1.58055
 Alpha virt. eigenvalues --    1.62504   1.65395   1.67992   1.72458   1.79901
 Alpha virt. eigenvalues --    1.91095   1.94716   1.97580   2.05240   2.09833
          Condensed to atoms (all electrons):
              1          2          3          4          5          6
     1  C    4.915552   0.483696  -0.053005   0.167041  -0.097650  -0.040988
     2  N    0.483696   6.937773   0.388791  -0.086392  -0.049635  -0.085803
     3  C   -0.053005   0.388791   4.872334  -0.051311  -0.059893   0.384888
     4  C    0.167041  -0.086392  -0.051311   5.512464   0.314250  -0.058888
     5  C   -0.097650  -0.049635  -0.059893   0.314250   5.142541   0.385085
     6  N   -0.040988  -0.085803   0.384888  -0.058888   0.385085   6.888769
     7  H    0.006087  -0.067089   0.398329  -0.001246   0.007456  -0.067400
     8  N    0.225667  -0.109418   0.004285  -0.106972   0.006002  -0.000528
     9  H   -0.007656   0.005612   0.000434   0.010571  -0.000097   0.000075
    10  H   -0.011182   0.002047  -0.000094  -0.009949  -0.000039  -0.000011
    11  N   -0.032244   0.003424   0.000737   0.290661  -0.066933   0.006501
    12  C    0.005860  -0.000404  -0.000375  -0.077546  -0.098702   0.002601
    13  N    0.009948   0.000404   0.004367  -0.107843   0.148120  -0.061003
    14  H   -0.000169   0.000001   0.000002   0.004294   0.002950  -0.000047
    15  H    0.000020   0.000037   0.000117   0.009129  -0.007939   0.002691
    16  C    0.000000   0.000000   0.000000   0.000000   0.000000   0.000000
    17  C   -0.000001   0.000000   0.000000  -0.000001   0.000000   0.000000
    18  H    0.000000   0.000000   0.000000   0.000000   0.000000   0.000000
    19  H    0.000000   0.000000   0.000000   0.000000   0.000000   0.000000
    20  H    0.000000   0.000000   0.000000   0.000000   0.000000   0.000000
    21  C   -0.000229  -0.000001   0.000000   0.000113   0.000011   0.000000
    22  C    0.000000   0.000000   0.000000   0.000000   0.000000   0.000000
    23  N    0.000000   0.000000   0.000000   0.000000   0.000000   0.000000
    24  H    0.000000   0.000000   0.000000   0.000000   0.000000   0.000000
    25  N    0.001229   0.000001   0.000000  -0.000955  -0.000140   0.000000
    26  C    0.000014   0.000000   0.000000   0.000253  -0.000026   0.000000
    27  H   -0.003991  -0.000012  -0.000001   0.001540   0.001449  -0.000009
    28  H    0.000000   0.000000   0.000000   0.000000   0.000000   0.000000
    29  O    0.000001   0.000000   0.000000   0.000065  -0.000009   0.000000
    30  O    0.000001  -0.000002   0.000000  -0.000050   0.000002   0.000000
              7          8          9         10         11         12
     1  C    0.006087   0.225667  -0.007656  -0.011182  -0.032244   0.005860
     2  N   -0.067089  -0.109418   0.005612   0.002047   0.003424  -0.000404
     3  C    0.398329   0.004285   0.000434  -0.000094   0.000737  -0.000375
     4  C   -0.001246  -0.106972   0.010571  -0.009949   0.290661  -0.077546
     5  C    0.007456   0.006002  -0.000097  -0.000039  -0.066933  -0.098702
     6  N   -0.067400  -0.000528   0.000075  -0.000011   0.006501   0.002601
     7  H    0.570441  -0.000017  -0.000044   0.000002   0.000010   0.000001
     8  N   -0.000017   7.220841   0.293996   0.260075   0.001022  -0.000092
     9  H   -0.000044   0.293996   0.388164  -0.016919  -0.000070   0.000008
    10  H    0.000002   0.260075  -0.016919   0.316296   0.000936  -0.000010
    11  N    0.000010   0.001022  -0.000070   0.000936   6.998987   0.429481
    12  C    0.000001  -0.000092   0.000008  -0.000010   0.429481   4.821922
    13  N   -0.000073  -0.000124   0.000002   0.000009  -0.098624   0.263365
    14  H    0.000000  -0.000001   0.000000  -0.000001  -0.033425   0.362950
    15  H   -0.000007   0.000001   0.000000   0.000000   0.003287  -0.016670
    16  C    0.000000   0.000001   0.000000  -0.000013   0.000001   0.000000
    17  C    0.000000  -0.000078   0.000002   0.001098  -0.000019   0.000001
    18  H    0.000000   0.000000   0.000000  -0.000004   0.000000   0.000000
    19  H    0.000000   0.000000   0.000000  -0.000004   0.000000   0.000000
    20  H    0.000000   0.000000   0.000000   0.000000   0.000000   0.000000
    21  C    0.000000  -0.000191   0.000027   0.000455   0.000602   0.000107
    22  C    0.000000   0.000001   0.000000  -0.000023  -0.000011  -0.000001
    23  N    0.000000   0.000000   0.000000   0.000001  -0.000032   0.000021
    24  H    0.000000   0.000000   0.000000   0.000000   0.000000   0.000000
    25  N    0.000000  -0.000024  -0.000005  -0.001964  -0.068157   0.000866
    26  C    0.000000   0.000001   0.000000   0.000004   0.000189   0.001383
    27  H    0.000000   0.000971  -0.000006   0.001537   0.121987  -0.005803
    28  H    0.000000   0.000000   0.000000   0.000000   0.000002   0.000000
    29  O    0.000000   0.000000   0.000000   0.000000  -0.000182  -0.001221
    30  O    0.000000  -0.021781   0.000186   0.067253   0.000038   0.000029
             13         14         15         16         17         18
     1  C    0.009948  -0.000169   0.000020   0.000000  -0.000001   0.000000
     2  N    0.000404   0.000001   0.000037   0.000000   0.000000   0.000000
     3  C    0.004367   0.000002   0.000117   0.000000   0.000000   0.000000
     4  C   -0.107843   0.004294   0.009129   0.000000  -0.000001   0.000000
     5  C    0.148120   0.002950  -0.007939   0.000000   0.000000   0.000000
     6  N   -0.061003  -0.000047   0.002691   0.000000   0.000000   0.000000
     7  H   -0.000073   0.000000  -0.000007   0.000000   0.000000   0.000000
     8  N   -0.000124  -0.000001   0.000001   0.000001  -0.000078   0.000000
     9  H    0.000002   0.000000   0.000000   0.000000   0.000002   0.000000
    10  H    0.000009  -0.000001   0.000000  -0.000013   0.001098  -0.000004
    11  N   -0.098624  -0.033425   0.003287   0.000001  -0.000019   0.000000
    12  C    0.263365   0.362950  -0.016670   0.000000   0.000001   0.000000
    13  N    7.294850  -0.043384   0.301737   0.000000   0.000000   0.000000
    14  H   -0.043384   0.470791   0.000536   0.000000   0.000000   0.000000
    15  H    0.301737   0.000536   0.364578   0.000000   0.000000   0.000000
    16  C    0.000000   0.000000   0.000000   5.080738   0.337812   0.372374
    17  C    0.000000   0.000000   0.000000   0.337812   5.274718  -0.033838
    18  H    0.000000   0.000000   0.000000   0.372374  -0.033838   0.553281
    19  H    0.000000   0.000000   0.000000   0.372372  -0.033837  -0.032599
    20  H    0.000000   0.000000   0.000000   0.361430  -0.038964  -0.029620
    21  C   -0.000002  -0.000018   0.000000  -0.034741   0.216006  -0.003886
    22  C    0.000000  -0.000002   0.000000  -0.046707   0.548142   0.000365
    23  N    0.000000   0.000098   0.000000   0.004626  -0.031390  -0.000082
    24  H    0.000000   0.000000   0.000000  -0.004399  -0.017976   0.000091
    25  N   -0.000079  -0.000168   0.000002   0.006202  -0.166911   0.000073
    26  C    0.000037   0.001753   0.000001   0.000285  -0.001095  -0.000006
    27  H    0.000614  -0.000582  -0.000017  -0.000031   0.002555   0.000002
    28  H    0.000000  -0.000001   0.000000  -0.000092   0.002602   0.000002
    29  O    0.000067   0.014450   0.000000   0.000001   0.000067   0.000000
    30  O    0.000000   0.000001   0.000000   0.005847  -0.111854   0.002739
             19         20         21         22         23         24
     1  C    0.000000   0.000000  -0.000229   0.000000   0.000000   0.000000
     2  N    0.000000   0.000000  -0.000001   0.000000   0.000000   0.000000
     3  C    0.000000   0.000000   0.000000   0.000000   0.000000   0.000000
     4  C    0.000000   0.000000   0.000113   0.000000   0.000000   0.000000
     5  C    0.000000   0.000000   0.000011   0.000000   0.000000   0.000000
     6  N    0.000000   0.000000   0.000000   0.000000   0.000000   0.000000
     7  H    0.000000   0.000000   0.000000   0.000000   0.000000   0.000000
     8  N    0.000000   0.000000  -0.000191   0.000001   0.000000   0.000000
     9  H    0.000000   0.000000   0.000027   0.000000   0.000000   0.000000
    10  H   -0.000004   0.000000   0.000455  -0.000023   0.000001   0.000000
    11  N    0.000000   0.000000   0.000602  -0.000011  -0.000032   0.000000
    12  C    0.000000   0.000000   0.000107  -0.000001   0.000021   0.000000
    13  N    0.000000   0.000000  -0.000002   0.000000   0.000000   0.000000
    14  H    0.000000   0.000000  -0.000018  -0.000002   0.000098   0.000000
    15  H    0.000000   0.000000   0.000000   0.000000   0.000000   0.000000
    16  C    0.372372   0.361430  -0.034741  -0.046707   0.004626  -0.004399
    17  C   -0.033837  -0.038964   0.216006   0.548142  -0.031390  -0.017976
    18  H   -0.032599  -0.029620  -0.003886   0.000365  -0.000082   0.000091
    19  H    0.553293  -0.029621  -0.003885   0.000365  -0.000082   0.000091
    20  H   -0.029621   0.597256   0.006564  -0.005000   0.000130   0.004417
    21  C   -0.003885   0.006564   4.753718  -0.042122  -0.010162   0.003762
    22  C    0.000365  -0.005000  -0.042122   4.922396   0.186267   0.362688
    23  N   -0.000082   0.000130  -0.010162   0.186267   7.484400  -0.049244
    24  H    0.000091   0.004417   0.003762   0.362688  -0.049244   0.530325
    25  N    0.000073  -0.000067   0.046283   0.001039  -0.181627  -0.000328
    26  C   -0.000006  -0.000024   0.005576  -0.029800   0.088205   0.002105
    27  H    0.000002   0.000001  -0.007935   0.000052  -0.000015   0.000004
    28  H    0.000002  -0.000006  -0.000055  -0.019578   0.307068  -0.004081
    29  O    0.000000   0.000000  -0.000144   0.001297  -0.111278  -0.000071
    30  O    0.002738   0.000339   0.554117   0.003238   0.000025  -0.000057
             25         26         27         28         29         30
     1  C    0.001229   0.000014  -0.003991   0.000000   0.000001   0.000001
     2  N    0.000001   0.000000  -0.000012   0.000000   0.000000  -0.000002
     3  C    0.000000   0.000000  -0.000001   0.000000   0.000000   0.000000
     4  C   -0.000955   0.000253   0.001540   0.000000   0.000065  -0.000050
     5  C   -0.000140  -0.000026   0.001449   0.000000  -0.000009   0.000002
     6  N    0.000000   0.000000  -0.000009   0.000000   0.000000   0.000000
     7  H    0.000000   0.000000   0.000000   0.000000   0.000000   0.000000
     8  N   -0.000024   0.000001   0.000971   0.000000   0.000000  -0.021781
     9  H   -0.000005   0.000000  -0.000006   0.000000   0.000000   0.000186
    10  H   -0.001964   0.000004   0.001537   0.000000   0.000000   0.067253
    11  N   -0.068157   0.000189   0.121987   0.000002  -0.000182   0.000038
    12  C    0.000866   0.001383  -0.005803   0.000000  -0.001221   0.000029
    13  N   -0.000079   0.000037   0.000614   0.000000   0.000067   0.000000
    14  H   -0.000168   0.001753  -0.000582  -0.000001   0.014450   0.000001
    15  H    0.000002   0.000001  -0.000017   0.000000   0.000000   0.000000
    16  C    0.006202   0.000285  -0.000031  -0.000092   0.000001   0.005847
    17  C   -0.166911  -0.001095   0.002555   0.002602   0.000067  -0.111854
    18  H    0.000073  -0.000006   0.000002   0.000002   0.000000   0.002739
    19  H    0.000073  -0.000006   0.000002   0.000002   0.000000   0.002738
    20  H   -0.000067  -0.000024   0.000001  -0.000006   0.000000   0.000339
    21  C    0.046283   0.005576  -0.007935  -0.000055  -0.000144   0.554117
    22  C    0.001039  -0.029800   0.000052  -0.019578   0.001297   0.003238
    23  N   -0.181627   0.088205  -0.000015   0.307068  -0.111278   0.000025
    24  H   -0.000328   0.002105   0.000004  -0.004081  -0.000071  -0.000057
    25  N    8.038521   0.079475   0.212873   0.006299  -0.108398  -0.123040
    26  C    0.079475   4.561449  -0.023296  -0.008408   0.624666   0.000728
    27  H    0.212873  -0.023296   0.267977   0.000038  -0.001555   0.001812
    28  H    0.006299  -0.008408   0.000038   0.363935   0.005162   0.000004
    29  O   -0.108398   0.624666  -0.001555   0.005162   8.037738  -0.000013
    30  O   -0.123040   0.000728   0.001812   0.000004  -0.000013   8.108937
 Mulliken atomic charges:
              1
     1  C    0.432001
     2  N   -0.423030
     3  C    0.110397
     4  C    0.190774
     5  C    0.373195
     6  N   -0.355935
     7  H    0.153549
     8  N   -0.773638
     9  H    0.325721
    10  H    0.390499
    11  N   -0.558171
    12  C    0.312228
    13  N   -0.712387
    14  H    0.219972
    15  H    0.342499
    16  C   -0.455705
    17  C    0.052961
    18  H    0.171109
    19  H    0.171098
    20  H    0.133165
    21  C    0.516027
    22  C    0.117392
    23  N   -0.686928
    24  H    0.172675
    25  N   -0.741074
    26  C    0.696537
    27  H    0.429839
    28  H    0.347109
    29  O   -0.460643
    30  O   -0.491236
 Sum of Mulliken atomic charges =   0.00000
 Mulliken charges with hydrogens summed into heavy atoms:
              1
     1  C    0.432001
     2  N   -0.423030
     3  C    0.263946
     4  C    0.190774
     5  C    0.373195
     6  N   -0.355935
     8  N   -0.057418
    11  N   -0.558171
    12  C    0.532200
    13  N   -0.369888
    16  C    0.019667
    17  C    0.052961
    21  C    0.516027
    22  C    0.290066
    23  N   -0.339819
    25  N   -0.311236
    26  C    0.696537
    29  O   -0.460643
    30  O   -0.491236
 Sum of Mulliken charges with hydrogens summed into heavy atoms =   0.00000
 Electronic spatial extent (au):  <R**2>=           6162.8006
 Charge=              0.0000 electrons
 Dipole moment (field-independent basis, Debye):
    X=             -5.8332    Y=              2.3132    Z=             -0.0001  Tot=              6.2752
 Quadrupole moment (field-independent basis, Debye-Ang):
   XX=            -90.6853   YY=           -104.6995   ZZ=           -111.0168
   XY=              6.1053   XZ=              0.0094   YZ=              0.0090
 Traceless Quadrupole moment (field-independent basis, Debye-Ang):
   XX=             11.4486   YY=             -2.5657   ZZ=             -8.8829
   XY=              6.1053   XZ=              0.0094   YZ=              0.0090
 Octapole moment (field-independent basis, Debye-Ang**2):
  XXX=           -244.7580  YYY=             14.5317  ZZZ=              0.0016  XYY=             16.2015
  XXY=             46.2840  XXZ=             -0.0100  XZZ=             -4.9541  YZZ=              1.2344
  YYZ=              0.0173  XYZ=              0.0155
 Hexadecapole moment (field-independent basis, Debye-Ang**3):
 XXXX=          -5845.9556 YYYY=          -1652.1208 ZZZZ=           -108.7211 XXXY=           -158.8704
 XXXZ=              0.1536 YYYX=            140.4828 YYYZ=              0.0992 ZZZX=             -0.0023
 ZZZY=             -0.0205 XXYY=          -1211.3782 XXZZ=          -1113.0928 YYZZ=           -318.6633
 XXYZ=             -0.0056 YYXZ=              0.0612 ZZXY=              0.3688
 N-N= 1.371919608845D+03 E-N=-4.892782123122D+03  KE= 9.160621701391D+02
 1\1\GINC-LSQC07\FOpt\RB3LYP\6-31G\C10H11N7O2\LITAO\23-May-2015\0\\#opt
  b3lyp/6-31g\\Title Card Required\\0,1\C,0.3491470061,0.1034753915,1.3
 779362638\N,-0.9507439036,0.12797483,1.7998121158\C,-1.9476289949,0.06
 94439598,0.8894583351\C,0.5779844879,0.0164125686,-0.0175469334\C,-0.5
 483684663,-0.0376148384,-0.8525792092\N,-1.8371634783,-0.0147258159,-0
 .4562486476\H,-2.9545181495,0.0928785376,1.287371783\N,1.3265010918,0.
 1628337931,2.3022343587\H,1.0422658388,0.223089689,3.2677720211\H,2.32
 23556584,0.1499117011,2.0762188456\N,1.7404683553,-0.0304244119,-0.793
 5340733\C,1.3353100995,-0.1100374686,-2.0560489973\N,-0.0445903458,-0.
 1177090284,-2.1442530704\H,2.0012302167,-0.1618231464,-2.9024791684\H,
 -0.6018083488,-0.1709877903,-2.9816305229\C,7.0695824185,0.1777328535,
 2.3694033822\C,6.4458577786,0.0919305754,1.0059740009\H,6.7544762532,-
 0.6636421396,2.9972948824\H,6.7507366211,1.0888250217,2.8887322396\H,8
 .1621947815,0.1762992341,2.3085807734\C,4.9860187933,0.0826268082,0.90
 68503787\C,7.1596897737,0.0219504082,-0.1478195032\N,6.5489552182,-0.0
 562611516,-1.3887590331\H,8.2428205892,0.0235955631,-0.1585862134\N,4.
 4558779374,0.0022095844,-0.3761492394\C,5.1641293941,-0.0697141109,-1.
 5590286333\H,3.4031331147,-0.0058238798,-0.4724174952\H,7.0953811069,-
 0.1076936541,-2.2357089773\O,4.631595564,-0.1409113686,-2.6879926944\O
 ,4.225511588,0.1430286852,1.9108234313\\Version=EM64L-G09RevA.01\State
 =1-A\HF=-921.1910739\RMSD=3.164e-09\RMSF=1.362e-05\Dipole=2.3103579,-0
 .0496285,-0.8688696\Quadrupole=8.3516272,-6.5833993,-1.7682279,0.32909
 32,4.7051857,0.3172533\PG=C01 [X(C10H11N7O2)]\\@


 A MAN THINKING OR WORKING IS ALWAYS ALONE, 
 LET HIM BE WHERE HE WILL.

                                    -- THOREAU
 Job cpu time:  0 days  1 hours 22 minutes 40.0 seconds.
 File lengths (MBytes):  RWF=     23 Int=      0 D2E=      0 Chk=      4 Scr=      1
 Normal termination of Gaussian 09 at Sat May 23 14:36:56 2015.
