5
	Energy:       0.2403509
C          0.27280       -2.53484        0.90147
O          0.12032       -1.98367        1.97978
O         -0.14395       -1.95582       -0.22395
H          0.75502       -3.51078        0.86010
H         -0.54395       -1.11274       -0.04231
