20
  This energy is -0.0230528 and Call times are: 3094
C	2.60107	1.905	1.39041
O	1.50277	2.36034	1.65809
O	2.79187	0.568698	1.11844
H	3.51994	2.5086	1.34304
H	3.72542	0.349366	0.920984
C	-2.18797	-0.889615	-2.0898
O	-2.90947	-0.974234	-3.07563
O	-1.68181	0.301853	-1.6481
H	-1.88774	-1.75433	-1.48095
H	-1.11904	0.206742	-0.842949
C	0.129833	-1.21617	1.20762
O	-0.383452	-2.20103	0.710951
O	-0.0669481	0.0405852	0.655883
H	0.769054	-1.21998	2.09794
H	0.383889	0.773373	1.12143
C	6.51885	-0.315094	0.258998
O	5.42833	0.0586451	0.654383
O	7.13743	0.257913	-0.829621
H	7.09516	-1.12737	0.726955
H	8.00713	-0.144861	-1.02964
