20
  This energy is -0.00136605 and Call times are: 19640
C	0.70462	-0.00855797	-3.43966
O	-0.480245	0.164107	-3.21266
O	1.68109	0.343218	-2.53476
H	1.09241	-0.451997	-4.36911
H	2.58542	0.145521	-2.85367
C	-0.837723	-1.12857	2.8232
O	-1.18073	-1.8572	3.74571
O	-1.20809	-1.35848	1.52672
H	-0.2093	-0.236293	2.95547
H	-0.853709	-0.684126	0.899278
C	0.587416	1.60242	0.203566
O	0.842338	1.68984	1.38993
O	-0.196795	0.565605	-0.2787
H	0.933907	2.29912	-0.568353
H	-0.349348	0.575497	-1.24493
C	9.07354	-0.0115092	0.38761
O	9.37812	1.06722	-0.0907425
O	8.30925	-0.926858	-0.300918
H	9.37582	-0.343929	1.39211
H	8.14526	-1.74667	0.208612
