20
  This energy is -0.000458132 and Call times are: 3281
C	-1.373	-3.23113	0.0499553
O	-0.269119	-3.19175	0.564873
O	-2.19834	-2.12982	0.00504205
H	-1.80038	-4.1319	-0.415726
H	-3.05211	-2.31112	-0.438582
C	1.69868	2.44728	-1.035
O	2.42285	3.18431	-1.69221
O	1.84091	1.08689	-1.03226
H	0.880442	2.81096	-0.397199
H	1.1834	0.631797	-0.453812
C	-0.971122	0.525868	1.31706
O	-0.987146	1.73882	1.22437
O	-0.0384343	-0.226365	0.619349
H	-1.65787	-0.0682731	1.93078
H	-0.100343	-1.19327	0.754414
C	8.32227	-0.159283	0.393222
O	9.01445	-0.878479	-0.30599
O	7.65007	0.928684	-0.117211
H	8.17543	-0.311762	1.47308
H	7.13535	1.41153	0.56141
