20
  This energy is 9.7158e-05 and Call times are: 21804
C	-0.266949	0.634098	-3.44303
O	0.847599	0.253354	-3.12988
O	-1.38552	0.300042	-2.71278
H	-0.475056	1.26606	-4.31952
H	-2.2095	0.677062	-3.08362
C	0.623972	0.550182	3.04202
O	0.943443	1.07117	4.10319
O	1.17873	0.915285	1.84626
H	-0.128112	-0.247365	2.9592
H	0.818772	0.404418	1.08241
C	-0.814206	-1.50833	-0.127526
O	-1.22303	-1.73488	0.995699
O	0.153401	-0.54001	-0.348093
H	-1.1515	-2.02036	-1.03601
H	0.421508	-0.42647	-1.28201
C	10.7191	-0.0989632	-0.412713
O	11.697	0.590679	-0.181586
O	9.80486	-0.422054	0.564969
H	10.4839	-0.516745	-1.40319
H	9.07297	-0.981127	0.232734
