20
  This energy is 0.000952888 and Call times are: 20492
C	-2.50377	-1.45178	-1.98778
O	-1.41487	-1.46675	-2.53487
O	-2.63291	-1.43386	-0.616985
H	-3.46181	-1.45124	-2.52915
H	-3.56648	-1.42317	-0.322142
C	1.91902	2.23357	1.12891
O	2.49307	3.29308	1.3468
O	1.3961	1.91774	-0.0948988
H	1.77571	1.4529	1.88955
H	0.96554	1.02986	-0.112552
C	0.138223	-1.39448	0.995281
O	0.644871	-0.99041	2.0249
O	0.158836	-0.621909	-0.155924
H	-0.362062	-2.36246	0.876842
H	-0.272113	-1.02687	-0.935193
C	4.35509	0.155486	-0.36368
O	4.72609	0.912185	0.516667
O	3.58522	-0.954585	-0.0970026
H	4.59713	0.288795	-1.42883
H	3.36397	-1.46723	-0.901271
