20
  This energy is 0.000770464 and Call times are: 10814
C	1.91385	2.9334	0.245211
O	1.74912	2.58628	-0.91134
O	1.02164	2.60472	1.2412
H	2.77282	3.52846	0.590177
H	1.2845	2.95166	2.1182
C	-0.622289	-3.08316	-0.229837
O	-0.526199	-4.30185	-0.301428
O	0.340678	-2.23927	-0.710935
H	-1.48133	-2.56723	0.222311
H	0.118806	-1.2866	-0.579738
C	-1.47489	0.836451	0.28164
O	-2.24835	-0.0210471	0.664444
O	-0.283685	0.49125	-0.33839
H	-1.63151	1.91656	0.382231
H	0.275258	1.24581	-0.612601
C	9.56135	-0.0277162	0.392032
O	10.5094	0.134032	-0.35651
O	8.26631	-0.090602	-0.0716324
H	9.65341	-0.135799	1.48325
H	7.61127	-0.223451	0.643824
