20
  This energy is 0.000331058 and Call times are: 5149
C	-2.90471	-1.35579	1.43258
O	-2.17841	-2.2147	0.963547
O	-2.41616	-0.146221	1.87341
H	-3.99379	-1.4676	1.54357
H	-3.11552	0.442404	2.22415
C	1.90189	1.15407	-2.23536
O	2.36548	1.55459	-3.29567
O	0.939718	0.183945	-2.17231
H	2.21531	1.53522	-1.25298
H	0.668886	-0.0307637	-1.24788
C	0.749015	0.232598	1.52942
O	1.59916	1.08007	1.3316
O	0.155318	-0.43702	0.470321
H	0.382534	-0.0740202	2.51582
H	-0.516963	-1.10095	0.723701
C	13.339	0.034913	0.221227
O	13.1964	0.721951	-0.775211
O	14.4973	-0.668936	0.46419
H	12.5706	-0.0821476	1.00018
H	14.4673	-1.17494	1.30184
