20
  This energy is -0.00085007 and Call times are: 12052
C	-0.21286	-1.36909	-3.22615
O	-1.30498	-1.05402	-2.78655
O	0.947253	-0.754281	-2.81116
H	-0.0591002	-2.15704	-3.97876
H	1.7461	-1.11141	-3.25037
C	-0.0217275	0.0922567	3.15229
O	-0.0786076	-0.205205	4.33882
O	-0.704644	-0.595756	2.18732
H	0.576523	0.928826	2.76394
H	-0.557622	-0.235709	1.28025
C	0.54359	1.52077	-0.588247
O	1.09331	2.0419	0.36376
O	-0.288942	0.425699	-0.414252
H	0.644438	1.8464	-1.62992
H	-0.687382	0.0727957	-1.23503
C	8.68683	-0.0879625	-0.0451826
O	9.25723	-0.645966	-0.966333
O	9.36758	0.654241	0.893851
H	7.59888	-0.126449	0.115414
H	8.77871	1.04247	1.57291
