20
  This energy is 0.000377068 and Call times are: 10898
C	-0.358087	2.17578	-2.73232
O	0.342702	2.64957	-1.85502
O	-0.488892	0.816482	-2.90916
H	-0.937299	2.77945	-3.44717
H	-1.08335	0.584106	-3.6516
C	-0.594482	-1.29443	2.81371
O	-1.07621	-1.56927	3.90549
O	-0.637679	-0.0330435	2.2865
H	-0.0910525	-2.02948	2.16964
H	-0.207139	0.0293749	1.40064
C	1.15314	-0.976603	-0.819009
O	1.12222	-2.0448	-0.23755
O	0.590557	0.15638	-0.251196
H	1.60605	-0.807546	-1.80267
H	0.662339	0.969806	-0.789857
C	13.1678	0.419624	-0.0580596
O	13.174	0.241424	1.14753
O	13.2545	-0.624358	-0.95174
H	13.094	1.41054	-0.530847
H	13.2375	-0.329494	-1.88521
