20
  This energy is 0.00146092 and Call times are: 6696
C	1.70542	-1.39301	-2.73475
O	2.02282	-0.23323	-2.53625
O	1.23496	-2.20485	-1.72695
H	1.76513	-1.88534	-3.71707
H	1.02057	-3.10924	-2.03471
C	-2.23465	1.58451	1.56255
O	-3.23274	2.2296	1.85793
O	-1.60799	1.71038	0.353276
H	-1.76088	0.856272	2.23619
H	-0.818383	1.12484	0.265576
C	1.00897	-0.793476	1.14308
O	0.359531	-0.807023	2.17174
O	0.653258	0.0363953	0.0907787
H	1.89789	-1.40522	0.951053
H	1.23239	-0.0192853	-0.695654
C	7.34925	-0.358563	-0.172182
O	7.69349	0.545168	-0.913813
O	6.6196	-0.127082	0.972414
H	7.58584	-1.4189	-0.347185
H	6.41636	-0.947074	1.4673
