20
  This energy is 0.00142519 and Call times are: 3780
C	-2.89322	-1.97786	-0.212544
O	-1.97256	-2.56513	0.328517
O	-2.99407	-0.604667	-0.196935
H	-3.70975	-2.48203	-0.751052
H	-3.78451	-0.275063	-0.67146
C	2.80319	1.19079	-0.818577
O	3.84622	1.45141	-1.40487
O	2.1924	-0.0296403	-0.910137
H	2.27303	1.90714	-0.174884
H	1.36137	-0.0854085	-0.380695
C	-0.61084	0.902378	1.32923
O	0.0321953	1.93512	1.32336
O	-0.189507	-0.199447	0.600516
H	-1.54316	0.743794	1.88323
H	-0.768482	-0.985361	0.664522
C	12.1848	0.235726	0.209337
O	11.183	0.922116	0.106739
O	12.2506	-1.04212	-0.299429
H	13.1077	0.568819	0.707568
H	13.1166	-1.47099	-0.141979
