20
  This energy is -5.863e-06 and Call times are: 11192
C	0.435191	-2.72837	-2.16666
O	0.52839	-1.66043	-2.74637
O	0.71715	-2.85895	-0.825198
H	0.123726	-3.66488	-2.65333
H	0.598155	-3.77402	-0.497958
C	-1.49462	2.31232	1.53792
O	-2.34288	3.08114	1.9726
O	-1.58267	1.74441	0.296703
H	-0.598612	2.0151	2.10131
H	-0.823215	1.14876	0.090645
C	1.59002	-0.142326	0.637057
O	1.54503	0.427919	1.71078
O	0.586052	0.0350954	-0.302694
H	2.38865	-0.821461	0.31729
H	0.705478	-0.462442	-1.13646
C	18.8446	0.124213	-0.215188
O	18.0701	1.06486	-0.238852
O	18.5395	-1.05808	0.421313
H	19.8369	0.135161	-0.690641
H	19.2564	-1.72171	0.357065
