20
  This energy is -8.7655e-05 and Call times are: 9154
C	2.74802	0.833369	-2.02031
O	2.15422	1.81975	-1.62069
O	2.73326	-0.35819	-1.33036
H	3.33717	0.807089	-2.94936
H	3.25372	-1.06052	-1.77134
C	-2.99202	-0.649239	0.75645
O	-4.19733	-0.861854	0.716442
O	-2.36321	0.190998	-0.120762
H	-2.31817	-1.11012	1.49271
H	-1.39176	0.258808	0.0395905
C	0.993437	-0.332304	1.36269
O	0.313408	-1.04773	2.0739
O	0.419395	0.390781	0.32819
H	2.07604	-0.192261	1.4609
H	1.0421	0.938492	-0.190681
C	28.6051	-0.356865	-0.205149
O	27.4609	-0.0980279	-0.53512
O	29.3102	0.436665	0.671893
H	29.166	-1.23008	-0.571037
H	30.2153	0.104799	0.843023
