20
  This energy is -0.000285006 and Call times are: 19346
C	2.11469	0.593575	2.73926
O	2.0851	-0.584056	2.42693
O	1.86126	1.59723	1.83123
H	2.34194	0.953041	3.75418
H	1.9209	2.49162	2.22508
C	-2.63929	-0.741859	-1.55875
O	-3.78774	-1.05205	-1.84928
O	-2.03597	-1.15283	-0.402032
H	-2.00054	-0.113112	-2.19534
H	-1.11076	-0.821554	-0.311155
C	1.15553	0.58719	-1.12882
O	0.504327	0.879808	-2.11391
O	0.613172	-0.207945	-0.130732
H	2.18665	0.905841	-0.937641
H	1.2089	-0.391556	0.623169
C	11.5406	0.341252	-0.245995
O	10.5503	-0.355423	-0.384121
O	12.5811	-0.0227149	0.579271
H	11.6891	1.30394	-0.757943
H	13.307	0.634152	0.589787
