20
  This energy is 0.00108751 and Call times are: 5719
C	3.21688	-1.19472	0.743033
O	2.72293	-1.76604	-0.21344
O	2.85715	0.0871194	1.09452
H	3.97908	-1.64287	1.39812
H	3.33644	0.414982	1.8828
C	-3.14987	0.152486	0.0315951
O	-4.33664	-0.0515929	0.254082
O	-2.21708	-0.847902	0.0378028
H	-2.7357	1.14643	-0.189989
H	-1.30524	-0.525864	-0.159298
C	0.608573	1.41225	-0.767757
O	-0.317192	2.20118	-0.742438
O	0.397946	0.0637469	-0.523342
H	1.65272	1.67255	-0.975825
H	1.19945	-0.495589	-0.564625
C	12.2699	0.0197159	0.266713
O	13.1856	-0.483948	0.893692
O	12.4094	0.406061	-1.04757
H	11.27	0.207061	0.686127
H	11.5913	0.794305	-1.41971
