20
  This energy is -0.00302111 and Call times are: 12136
C	-1.51008	-0.735074	-3.08336
O	-2.03183	-1.3357	-2.16018
O	-0.86054	0.465206	-2.90033
H	-1.51126	-1.09084	-4.12468
H	-0.491607	0.829535	-3.73084
C	1.95226	-0.314954	2.4567
O	2.8217	-0.700209	3.22821
O	1.27072	-1.16636	1.63117
H	1.64739	0.73699	2.36165
H	0.602133	-0.706038	1.06981
C	-0.801427	1.51507	0.128603
O	-0.124953	2.15731	0.909632
O	-0.644887	0.141845	0.0176552
H	-1.56629	1.9343	-0.535114
H	-1.23081	-0.291186	-0.635147
C	6.27386	0.404244	0.128039
O	7.42481	0.235107	-0.235204
O	5.33689	-0.603699	0.0810085
H	5.88812	1.35812	0.518195
H	4.4569	-0.321558	0.40446
