20
  This energy is -0.00399864 and Call times are: 6949
C	-1.25535	-0.486325	3.24274
O	-0.0848708	-0.812361	3.14828
O	-1.81898	0.461489	2.4181
H	-1.95246	-0.911465	3.98045
H	-2.76582	0.619734	2.61059
C	0.794609	-0.698835	-2.97088
O	0.968002	-1.26937	-4.04046
O	0.796168	-1.36151	-1.77432
H	0.624519	0.383511	-2.88051
H	0.643671	-0.764857	-1.00311
C	0.171756	1.6949	0.228166
O	0.194732	2.15751	-0.896806
O	0.358162	0.337454	0.440632
H	0.00935462	2.27407	1.1444
H	0.32364	0.0553729	1.37669
C	4.02953	0.0136606	-0.207491
O	4.59955	1.06141	-0.457591
O	4.58844	-0.946469	0.60604
H	3.03736	-0.253553	-0.601332
H	4.01616	-1.73325	0.7159
