20
  This energy is -0.000179768 and Call times are: 11360
C	-1.21916	0.335565	3.27549
O	-1.79863	-0.539272	2.65573
O	0.071437	0.710956	2.97629
H	-1.66622	0.892527	4.11265
H	0.405254	1.42476	3.55736
C	0.187418	0.439853	-3.11726
O	-0.000448996	0.81841	-4.2666
O	-0.822938	0.339918	-2.2007
H	1.1735	0.150666	-2.72665
H	-0.513756	0.0205521	-1.31954
C	1.39439	-0.862508	0.51577
O	2.19369	-0.728939	-0.391622
O	0.0519032	-0.571713	0.326745
H	1.64024	-1.20904	1.5261
H	-0.516712	-0.708476	1.11093
C	18.3687	0.0998083	-0.313616
O	18.8255	0.600335	0.699297
O	17.1984	-0.625763	-0.306717
H	18.8408	0.181177	-1.30427
H	16.9556	-0.966015	-1.19209
