20
  This energy is -0.000990391 and Call times are: 7680
C	0.148184	-0.199118	-1.04704
O	0.0433353	0.140025	0.16918
O	-0.365006	-1.29709	-1.56232
H	0.691738	0.432234	-1.74894
H	-0.87921	-1.89648	-0.906607
C	-1.75523	-2.38765	1.42728
O	-1.63959	-2.70798	0.224835
O	-1.25305	-1.29184	1.99225
H	-2.30002	-3.00751	2.13799
H	-0.738452	-0.693071	1.35164
C	1.83039	2.94315	-0.452562
O	1.76256	2.36136	-1.54389
O	1.28884	2.50554	0.703115
H	2.34643	3.89334	-0.30309
H	0.805623	1.63038	0.597039
C	4.4113	-0.0182333	-0.34937
O	5.49092	-0.525879	-0.607275
O	4.17789	0.512582	0.850325
H	3.6309	0.000423993	-1.10919
H	4.94041	0.42771	1.41169
