20
  This energy is 0.000195713 and Call times are: 7026
C	-0.755606	-0.665202	-0.380073
O	0.0800896	0.209012	-0.0025116
O	-0.731103	-1.92922	-0.0111656
H	-1.56606	-0.395254	-1.05611
H	0.0296614	-2.19048	0.626495
C	2.08498	-1.58322	1.99126
O	1.2534	-2.43311	1.60652
O	2.10146	-0.298157	1.64408
H	2.89683	-1.8391	2.67064
H	1.35382	-0.029998	1.00939
C	-1.52898	2.54869	-1.83948
O	-2.16875	1.50444	-2.02471
O	-0.433053	2.66808	-1.06162
H	-1.78704	3.50664	-2.29469
H	-0.170178	1.80022	-0.627617
C	5.36204	-0.203546	0.223808
O	4.98585	0.772333	-0.405424
O	6.64261	-0.571523	0.207957
H	4.64198	-0.779098	0.804291
H	7.15637	0.015687	-0.33519
