20
  This energy is -0.00146159 and Call times are: 14075
C	-0.649976	-0.138291	-0.846343
O	0.0668186	-0.0829288	0.196888
O	-0.648285	0.768198	-1.8017
H	-1.32812	-0.976216	-1.00361
H	-0.0109942	1.56036	-1.66035
C	1.73649	2.77975	-0.276486
O	1.02021	2.71029	-1.29824
O	1.76692	1.89102	0.714184
H	2.42192	3.6095	-0.109674
H	1.13616	1.10408	0.585435
C	-1.2471	-3.01157	1.26191
O	-1.80169	-2.79087	0.176653
O	-0.324633	-2.21856	1.84548
H	-1.44806	-3.89002	1.87789
H	-0.11806	-1.39945	1.30047
C	4.57305	-0.344613	0.111477
O	3.47594	-0.720783	-0.268852
O	4.86583	0.954122	0.166978
H	5.32011	-1.07972	0.408507
H	4.12709	1.47971	-0.11902
