20
  This energy is -0.00113678 and Call times are: 3659
C	0.0685711	1.06688	0.122305
O	-0.0571262	-0.193574	0.0968109
O	0.551333	1.7887	-0.867817
H	-0.231282	1.63155	1.00432
H	0.83529	1.26307	-1.70251
C	1.10365	-0.931049	-2.95533
O	1.22308	0.312216	-2.9118
O	0.624506	-1.70119	-1.98091
H	1.39515	-1.50667	-3.83272
H	0.343813	-1.19022	-1.14794
C	-1.33593	-0.135009	3.22712
O	-1.09813	1.05062	2.95915
O	-1.11215	-1.18317	2.40758
H	-1.76142	-0.468718	4.17532
H	-0.719585	-0.906821	1.52431
C	3.62644	0.431043	0.138713
O	3.80274	0.314503	-1.06342
O	3.38711	-0.637229	0.898336
H	3.66546	1.41979	0.594317
H	3.38083	-1.43026	0.374083
