20
  This energy is -0.0019706 and Call times are: 8268
C	-0.831383	-0.180236	-0.658944
O	0.190591	0.113533	0.0298657
O	-1.7425	-1.06218	-0.30331
H	-1.00692	0.306798	-1.61744
H	-1.58374	-1.52454	0.59927
C	-0.19869	-1.86515	2.70196
O	-1.19991	-2.14462	2.00818
O	0.747526	-0.984658	2.38321
H	-0.0142313	-2.34126	3.66395
H	0.601395	-0.523757	1.48883
C	1.15645	2.32762	-2.3371
O	0.100512	1.84372	-2.7671
O	1.74792	2.00303	-1.1687
H	1.73623	3.08542	-2.86729
H	1.23603	1.30573	-0.656465
C	6.4882	0.360529	0.200848
O	5.28717	0.284923	0.404807
O	7.11146	-0.553704	-0.541605
H	7.0556	1.18494	0.631084
H	6.49951	-1.21195	-0.851457
