20
  This energy is -0.00414045 and Call times are: 13573
C	0.888023	0.0579811	0.604933
O	-0.13765	-0.1354	-0.113253
O	1.29484	1.23904	1.0221
H	1.50385	-0.782926	0.92173
H	0.718741	2.036	0.727819
C	-1.28748	2.98341	-0.510408
O	-0.270925	3.15598	0.195788
O	-1.73499	1.81178	-0.956725
H	-1.91412	3.81496	-0.82975
H	-1.1689	1.01607	-0.673704
C	0.469532	-3.46235	-0.0944843
O	1.38196	-2.96934	0.582634
O	-0.525849	-2.77179	-0.688379
H	0.368655	-4.53169	-0.28897
H	-0.459871	-1.78174	-0.526831
C	4.63393	0.116439	-0.284024
O	3.58542	-0.115382	-0.864263
O	4.71418	0.0176699	1.04237
H	5.51299	0.407168	-0.858001
H	3.87844	-0.242831	1.41313
