20
  This energy is -0.000142722 and Call times are: 10884
C	0.586786	-0.0878001	-0.897698
O	-0.158764	0.116878	0.106021
O	1.48385	-1.04873	-0.977173
H	0.513245	0.551536	-1.77666
H	1.55806	-1.65552	-0.152595
C	0.819803	-2.31579	2.18722
O	1.54911	-2.50147	1.18947
O	-0.0968945	-1.35876	2.31353
H	0.880098	-2.95062	3.0701
H	-0.175577	-0.749727	1.50322
C	-1.59277	2.7337	-1.48567
O	-0.754705	2.29606	-2.28578
O	-1.83758	2.23399	-0.256556
H	-2.2385	3.58936	-1.69153
H	-1.25686	1.44309	-0.0376883
C	5.79827	-0.404933	-0.0327776
O	6.21654	-0.0020583	-1.10634
O	5.95362	0.32066	1.07397
H	5.29263	-1.3684	0.0197546
H	6.40878	1.13343	0.88422
