20
  This energy is 8.2064e-05 and Call times are: 13756
C	0.193169	-0.708409	0.786595
O	-0.0850617	0.200721	-0.0508181
O	0.752148	-1.86049	0.478908
H	-0.0283318	-0.568389	1.84398
H	0.964274	-1.99893	-0.515814
C	0.965282	-1.17133	-2.91806
O	1.2304	-2.05845	-2.07866
O	0.399863	0.00476612	-2.65483
H	1.186	-1.29694	-3.97713
H	0.182277	0.150158	-1.67237
C	-1.31322	2.12858	2.44169
O	-0.935514	1.0898	3.00057
O	-1.22833	2.38158	1.11914
H	-1.76553	2.97062	2.96884
H	-0.814837	1.62258	0.605738
C	8.73066	0.104878	-0.349562
O	9.28341	1.08387	0.125651
O	8.94348	-1.10943	0.156084
H	8.0562	0.226591	-1.19632
H	9.54989	-1.06967	0.887151
