20
  This energy is -0.0059014 and Call times are: 13840
C	-1.04484	0.0477186	-0.252817
O	0.155288	-0.102543	0.124408
O	-1.44701	0.956246	-1.11726
H	-1.82952	-0.597845	0.139953
H	-0.712618	1.56769	-1.49202
C	1.72031	2.28923	-1.61828
O	0.530941	2.42503	-1.9772
O	2.17235	1.38914	-0.747822
H	2.51472	2.92481	-2.00695
H	1.45178	0.780805	-0.367791
C	-0.787729	-2.66182	2.12401
O	-1.83379	-2.28131	1.58085
O	0.436563	-2.13154	1.92332
H	-0.740743	-3.48492	2.83941
H	0.425463	-1.36955	1.26766
C	5.39051	-0.165131	0.306718
O	5.90273	0.670364	-0.420861
O	4.11083	-0.50515	0.157327
H	5.98718	-0.63723	1.08634
H	3.71283	-0.0186412	-0.555893
