20
  This energy is 0.000131957 and Call times are: 10616
C	1.00353	0.140311	0.36211
O	-0.187826	0.101517	-0.0672488
O	1.72719	-0.921256	0.651629
H	1.50143	1.09687	0.516445
H	1.26444	-1.82615	0.507875
C	-0.758136	-3.1948	-0.193334
O	0.415592	-3.13774	0.232077
O	-1.52737	-2.15144	-0.49647
H	-1.26545	-4.14461	-0.356425
H	-1.0793	-1.24999	-0.353871
C	-0.260295	3.48054	-0.188052
O	0.872327	3.20203	0.228685
O	-1.21851	2.58645	-0.508674
H	-0.614688	4.50099	-0.344826
H	-0.921013	1.63558	-0.374481
C	6.32764	0.434879	-0.0180658
O	5.11429	0.302497	-0.0249152
O	7.12816	-0.628873	0.0378241
H	6.75954	1.43416	-0.0581224
H	6.62099	-1.43238	0.0683551
