20
  This energy is -0.00594529 and Call times are: 7890
C	-0.654965	-0.00858924	0.85372
O	0.160036	-0.110379	-0.110958
O	-1.45355	1.02001	1.05037
H	-0.732624	-0.803931	1.59408
H	-1.38613	1.77298	0.35603
C	-0.369875	2.75764	-1.75427
O	-1.16628	2.84252	-0.794893
O	0.456244	1.74118	-1.99203
H	-0.286054	3.54344	-2.50369
H	0.399807	0.991521	-1.30753
C	1.1532	-3.13158	1.03952
O	0.290247	-2.75373	1.84363
O	1.56815	-2.44379	-0.0445177
H	1.68355	-4.08211	1.12147
H	1.09663	-1.56186	-0.147052
C	4.15166	0.423746	0.0563677
O	2.93853	0.373471	-0.0684812
O	4.88629	-0.687353	0.0205155
H	4.63784	1.38816	0.198598
H	4.33649	-1.45211	-0.108506
