44
  This energy is -8.9532 and Call times are: 78672
C	0.308165	-3.08642	1.57852
C	0.79938	-2.0417	0.652016
O	1.93357	-2.08289	0.195588
H	1.11844	-3.82512	1.76197
H	-0.563619	-3.61195	1.13517
H	0.0115296	-2.63057	2.54666
N	-0.0587079	-1.06416	0.35121
C	0.288778	0.0447644	-0.502073
C	-0.547718	1.24064	-0.0877053
O	-1.46547	1.11737	0.721154
H	-0.964633	-1.02231	0.76281
H	1.32731	0.306653	-0.342372
C	0.039779	-0.302035	-1.98631
H	-1.0277	-0.560556	-2.15271
H	0.316604	0.538986	-2.65458
H	0.655879	-1.1846	-2.26534
N	-0.242124	2.43567	-0.630425
C	-0.979563	3.6305	-0.291661
H	0.506627	2.51623	-1.28001
H	-0.576982	4.51005	-0.840785
H	-0.910909	3.83793	0.800828
H	-2.05613	3.51564	-0.554263
C	4.12999	3.17242	-1.31286
C	4.03392	1.6969	-1.38187
O	3.33718	1.14659	-2.22337
H	3.48278	3.61975	-2.09827
H	5.17824	3.49608	-1.48363
H	3.78958	3.53198	-0.318921
N	4.74267	1.01323	-0.48039
C	4.71686	-0.425718	-0.39491
C	4.99361	-0.8191	1.04392
O	5.35188	0.0197171	1.86838
H	5.27287	1.47616	0.224194
H	3.72375	-0.780429	-0.640977
C	5.76552	-1.05337	-1.33915
H	6.7857	-0.697959	-1.0804
H	5.74602	-2.16152	-1.29275
H	5.54817	-0.745712	-2.38531
N	4.82436	-2.11254	1.38212
C	5.0587	-2.57856	2.729
H	4.52999	-2.77575	0.702002
H	4.86515	-3.67116	2.80637
H	4.39031	-2.05243	3.44854
H	6.11302	-2.38662	3.03349
