44
  This energy is -4.3198 and Call times are: 79119
C	1.00993	-2.41573	2.29281
C	0.118452	-1.93582	1.21295
O	-0.65886	-2.69423	0.649914
H	0.846722	-3.50451	2.44714
H	0.786152	-1.88102	3.23978
H	2.07192	-2.24731	2.01551
N	0.215231	-0.64301	0.894121
C	-0.555743	-0.0399459	-0.164402
C	0.238296	1.12598	-0.722688
O	1.26304	1.51446	-0.165288
H	0.8817	-0.0474042	1.33337
H	-0.683522	-0.756546	-0.966143
C	-1.92806	0.439763	0.357017
H	-1.79749	1.18284	1.17239
H	-2.53673	0.893546	-0.451758
H	-2.48837	-0.428282	0.76799
N	-0.215601	1.70908	-1.84963
C	0.47708	2.82156	-2.4569
H	-1.0444	1.37799	-2.28842
H	-0.0518523	3.16039	-3.37485
H	1.51556	2.53167	-2.73761
H	0.53757	3.68024	-1.74969
C	4.3546	1.02722	-3.21604
C	5.31937	0.896887	-2.10096
O	6.50842	1.1352	-2.26158
H	4.89628	1.33714	-4.13603
H	3.59034	1.79509	-2.97307
H	3.8538	0.0541958	-3.40445
N	4.81942	0.506453	-0.926229
C	5.64018	0.293625	0.239798
C	4.96911	-0.75616	1.10536
O	3.83184	-1.1485	0.851615
H	3.85605	0.276683	-0.821429
H	6.59908	-0.105621	-0.066357
C	5.8278	1.60745	1.02967
H	4.84501	2.01191	1.35305
H	6.46947	1.45961	1.92237
H	6.31313	2.36345	0.374483
N	5.66648	-1.24412	2.15015
C	5.11148	-2.24969	3.02591
H	6.58697	-0.917225	2.33699
H	5.83791	-2.52098	3.82337
H	4.85801	-3.1718	2.45429
H	4.18035	-1.87756	3.51136
