44
  This energy is -8.0266 and Call times are: 236544
C	-0.0783582	3.41019	-0.690768
C	0.650617	2.1377	-0.489516
O	1.83698	2.03662	-0.770112
H	0.613005	4.16486	-1.12478
H	-0.461066	3.78966	0.279944
H	-0.928346	3.25799	-1.38894
N	-0.0569495	1.12068	0.00789087
C	0.503153	-0.19095	0.218743
C	-0.614538	-1.20873	0.0905224
O	-1.78747	-0.849143	0.00904972
H	-1.03175	1.20655	0.192956
H	1.22272	-0.40192	-0.562502
C	1.16857	-0.289716	1.60896
H	0.428335	-0.0837249	2.41124
H	1.61579	-1.29071	1.77787
H	1.9778	0.469217	1.68325
N	-0.27308	-2.51202	0.061078
C	-1.26809	-3.55147	-0.0641649
H	0.681664	-2.78324	0.124136
H	-0.789379	-4.55548	-0.0698778
H	-1.84366	-3.43225	-1.01062
H	-1.98796	-3.51087	0.785116
C	5.32946	0.187954	3.38672
C	5.28701	0.767084	2.02512
O	5.5172	1.95326	1.8343
H	5.57152	0.988602	4.11899
H	6.11043	-0.599191	3.44361
H	4.34309	-0.250755	3.64689
N	4.98397	-0.0724864	1.0323
C	4.86252	0.352415	-0.340016
C	3.87811	-0.569169	-1.03514
O	3.46339	-1.58348	-0.477558
H	4.75897	-1.02656	1.2083
H	4.44514	1.3512	-0.369116
C	6.23268	0.317087	-1.0518
H	6.65646	-0.709578	-1.03145
H	6.1548	0.65535	-2.10539
H	6.93921	0.992373	-0.521576
N	3.47272	-0.230376	-2.27485
C	2.53361	-1.04361	-3.01167
H	3.8163	0.59638	-2.70787
H	2.32582	-0.598094	-4.00945
H	1.5702	-1.12964	-2.45876
H	2.93753	-2.07074	-3.16332
