44
  This energy is -4.2939 and Call times are: 237441
C	1.74277	-2.60724	-1.50922
C	1.48072	-1.166	-1.29637
O	2.24889	-0.313599	-1.72033
H	2.69915	-2.72883	-2.06279
H	0.92284	-3.06149	-2.1043
H	1.82383	-3.12975	-0.532747
N	0.371237	-0.858009	-0.62068
C	0.00452952	0.498502	-0.298244
C	-0.810701	0.476735	0.981006
O	-1.19179	-0.586449	1.46693
H	-0.222873	-1.56432	-0.24648
H	0.900606	1.07327	-0.099958
C	-0.806411	1.13851	-1.44629
H	-1.7311	0.555184	-1.64305
H	-1.0829	2.18779	-1.2159
H	-0.193499	1.13656	-2.37402
N	-1.09126	1.65894	1.56385
C	-1.85647	1.73624	2.78642
H	-0.770712	2.50835	1.15788
H	-1.98019	2.79422	3.10669
H	-1.34574	1.17961	3.60532
H	-2.86826	1.29171	2.6456
C	5.3996	2.63055	-2.16877
C	5.45308	1.19879	-1.7968
O	5.80564	0.348267	-2.60224
H	5.69977	2.74498	-3.23303
H	6.09629	3.21719	-1.53378
H	4.36753	3.02041	-2.04257
N	5.09563	0.896721	-0.546448
C	5.05546	-0.456632	-0.0510933
C	4.00382	-0.529956	1.0399
O	3.47465	0.491347	1.4742
H	4.7718	1.59533	0.0851631
H	4.74073	-1.11936	-0.847561
C	6.43458	-0.884834	0.496546
H	6.75314	-0.211605	1.32076
H	6.42022	-1.92988	0.868289
H	7.18987	-0.81581	-0.316544
N	3.66896	-1.74976	1.50461
C	2.67435	-1.91796	2.53836
H	4.1052	-2.56477	1.13784
H	2.53991	-2.9946	2.7833
H	1.69212	-1.50823	2.20878
H	2.9779	-1.3822	3.46677
