44
  This energy is -5.8305 and Call times are: 50820
C	-0.517584	1.35363	3.16425
C	-0.948658	1.09093	1.77274
O	-2.09701	1.31148	1.41349
H	-1.38144	1.73578	3.75042
H	0.290519	2.11491	3.1773
H	-0.150428	0.417023	3.63442
N	-0.0207308	0.603103	0.946085
C	-0.300713	0.257293	-0.42526
C	0.648605	-0.852307	-0.836523
O	1.57928	-1.18773	-0.106427
H	0.898862	0.390335	1.26381
H	-1.30702	-0.136368	-0.496096
C	-0.132684	1.48369	-1.34882
H	0.90251	1.88152	-1.28449
H	-0.358972	1.2336	-2.4056
H	-0.831145	2.28577	-1.02453
N	0.428216	-1.45691	-2.02054
C	1.27625	-2.52664	-2.49247
H	-0.332447	-1.17436	-2.59555
H	0.932067	-2.89268	-3.48483
H	1.26261	-3.38244	-1.77925
H	2.32953	-2.17792	-2.59318
C	4.98401	3.27712	-1.16003
C	4.49514	1.88034	-1.12614
O	3.42892	1.57023	-1.6394
H	4.23782	3.91485	-1.68192
H	5.94869	3.33178	-1.70699
H	5.12306	3.65906	-0.12666
N	5.27732	0.992666	-0.50758
C	4.91585	-0.394758	-0.356109
C	5.57486	-0.920231	0.905301
O	6.40463	-0.24448	1.51073
H	6.12281	1.26794	-0.0589769
H	3.84476	-0.471659	-0.216515
C	5.36251	-1.21844	-1.58382
H	6.46263	-1.14842	-1.72125
H	5.07758	-2.28599	-1.48544
H	4.8744	-0.811383	-2.49617
N	5.21146	-2.14383	1.33744
C	5.78107	-2.72385	2.5313
H	4.53537	-2.67382	0.836342
H	5.35463	-3.7337	2.71993
H	5.57048	-2.08325	3.4182
H	6.88623	-2.82276	2.43149
