25
  This energy is -0.00274055 and Call times are: 6273
C	-0.818088	-0.442749	1.81868
O	-0.267332	-0.014829	0.765775
O	-0.180178	-0.671728	2.94778
H	-1.88663	-0.650827	1.85168
H	0.824182	-0.45914	2.9153
C	2.92503	0.485885	1.78835
O	2.31553	-0.0276136	2.74891
O	2.46849	0.673167	0.554009
H	3.9486	0.845352	1.89087
H	1.54046	0.35415	0.359603
C	-3.10493	-0.0223409	-0.984096
O	-3.47813	-0.328969	0.149361
O	-1.81176	0.219249	-1.33055
H	-3.77041	0.0891365	-1.84244
H	-1.1504	0.13598	-0.549663
C	0.960904	-0.000263117	-3.04718
O	1.23475	-0.175585	-1.85443
O	-0.26862	0.27464	-3.53412
H	1.69383	-0.049576	-3.85534
H	-0.960522	0.310462	-2.80846
C	5.9927	0.274466	-0.211509
O	6.15596	0.25883	0.997991
O	5.03764	-0.461245	-0.77905
H	6.63549	0.897135	-0.83264
H	4.55514	-0.952678	-0.123715
