25
  This energy is -9.3082e-05 and Call times are: 911
C	0.268755	-2.02157	0.117827
O	0.265812	-0.758657	0.109001
O	1.07023	-2.76557	-0.615896
H	-0.412934	-2.58272	0.755469
H	1.72127	-2.23105	-1.20362
C	2.83342	-0.0580216	-1.98958
O	2.69931	-1.29893	-1.98632
O	2.04322	0.83765	-1.40611
H	3.66387	0.423003	-2.50571
H	1.2396	0.488421	-0.923358
C	-2.18846	-0.529827	2.3536
O	-1.96887	-1.74126	2.3064
O	-1.53687	0.401114	1.60562
H	-2.93385	-0.0638758	3.00116
H	-0.817393	0.00764471	0.98785
C	-1.15068	2.95394	-0.398514
O	-0.471705	2.01808	-0.836172
O	-1.88508	2.92307	0.734674
H	-1.23568	3.92702	-0.887018
H	-1.8321	2.03181	1.19232
C	10.492	0.0842947	-0.0568068
O	9.78323	0.907131	-0.613866
O	9.95482	-0.925784	0.626303
H	11.5756	0.177874	-0.119572
H	9.0054	-0.885513	0.598581
