25
  This energy is -0.00327776 and Call times are: 2889
C	-0.69497	-0.594285	-1.82667
O	-0.351403	-0.365991	-0.632981
O	-0.338477	-1.663	-2.50858
H	-1.32745	0.10274	-2.37466
H	0.245054	-2.32408	-1.98184
C	1.36912	-3.17648	0.159786
O	1.06091	-3.27098	-1.04601
O	1.19324	-2.12563	0.954679
H	1.83887	-4.00243	0.693234
H	0.785313	-1.30925	0.544886
C	-1.98407	2.53695	-0.4867
O	-2.29922	2.09785	-1.5939
O	-1.14368	1.91007	0.380164
H	-2.3425	3.4822	-0.0742938
H	-0.789692	1.00948	0.0370236
C	1.36416	1.54165	2.44357
O	1.41085	0.62334	1.61718
O	0.411818	2.49807	2.49553
H	2.10012	1.68641	3.23739
H	-0.267532	2.39162	1.76495
C	4.7106	-0.258243	-0.094947
O	4.61465	-0.00783465	1.0958
O	3.81544	0.210677	-0.963459
H	5.53759	-0.871915	-0.450211
H	3.15236	0.727505	-0.519624
