25
  This energy is 0.000974977 and Call times are: 6197
C	1.23694	-1.23582	1.05622
O	0.379896	-0.457103	0.552118
O	2.05827	-0.902678	2.03022
H	1.34568	-2.26003	0.702198
H	1.94074	0.0593064	2.37046
C	0.72805	2.31684	2.46825
O	1.60686	1.51125	2.8378
O	-0.0962626	2.1886	1.43328
H	0.554649	3.25252	2.99916
H	0.00352702	1.36639	0.872188
C	-0.73184	-2.73056	-1.61802
O	0.076449	-3.3672	-0.940246
O	-1.01028	-1.41007	-1.44635
H	-1.31714	-3.15364	-2.43684
H	-0.488839	-0.972473	-0.677769
C	-1.46918	1.72366	-2.2537
O	-0.691026	1.68611	-1.29377
O	-2.05173	0.649642	-2.82948
H	-1.77789	2.64432	-2.75352
H	-1.77001	-0.209034	-2.39371
C	5.33575	-0.383055	-0.242497
O	5.49809	-0.589409	0.949499
O	5.22091	0.859911	-0.708717
H	5.28436	-1.22515	-0.931655
H	5.28374	1.49306	-0.00234873
