25
  This energy is -1.9202e-05 and Call times are: 5396
C	1.91902	0.671964	-0.196746
O	0.686523	0.42616	-0.0719167
O	2.45246	1.27329	-1.23985
H	2.63123	0.392273	0.578301
H	1.77423	1.54849	-1.96044
C	-0.608226	1.8594	-2.85705
O	0.632096	1.9742	-2.93632
O	-1.29637	1.1843	-1.94175
H	-1.2708	2.3344	-3.5801
H	-0.769162	0.696425	-1.24544
C	1.05364	-1.02678	2.90604
O	2.18773	-0.614106	2.65793
O	-0.0161947	-0.885287	2.07772
H	0.777155	-1.55591	3.82017
H	0.195936	-0.382566	1.20801
C	-2.64748	-1.75513	0.344986
O	-1.8921	-1.12007	-0.399655
O	-2.42771	-2.00141	1.65474
H	-3.59282	-2.19688	0.0226228
H	-1.55622	-1.6157	1.96829
C	18.9629	0.373254	0.177233
O	20.1818	0.429808	0.14692
O	18.3197	-0.700988	-0.27869
H	18.3959	1.21086	0.581699
H	18.9339	-1.35132	-0.600699
