25
  This energy is -3.1345e-05 and Call times are: 5004
C	-1.61764	0.872207	0.891841
O	-0.579648	0.268966	0.499764
O	-2.68745	0.271341	1.37007
H	-1.68593	1.9586	0.856289
H	-2.61145	-0.751957	1.41561
C	-1.31888	-2.95856	1.22373
O	-2.33439	-2.28642	1.49728
O	-0.208812	-2.53257	0.629286
H	-1.2566	-4.01922	1.46571
H	-0.182476	-1.57204	0.350892
C	1.00288	3.08019	-0.340888
O	-0.0358226	3.49212	0.178179
O	1.31619	1.76595	-0.499968
H	1.79169	3.72399	-0.735031
H	0.605365	1.12246	-0.132865
C	2.27777	-0.960713	-2.02422
O	1.22242	-1.20711	-1.4293
O	2.92843	0.222758	-2.00307
H	2.81155	-1.68347	-2.64505
H	2.44661	0.90633	-1.44884
C	8.26916	-0.275889	-0.166621
O	7.67396	-0.766223	0.77948
O	7.96032	0.943082	-0.607356
H	9.0613	-0.842074	-0.655141
H	7.25557	1.32015	-0.0926521
