25
  This energy is -0.00011032 and Call times are: 7571
C	1.0196	-1.61489	-0.724852
O	0.320429	-0.728	-0.159497
O	2.0009	-2.26938	-0.139251
H	0.841763	-1.89738	-1.76155
H	2.15395	-2.00984	0.842689
C	1.53009	-0.782276	3.00615
O	2.22872	-1.57352	2.34004
O	0.587617	0.037196	2.55085
H	1.64448	-0.693204	4.08615
H	0.425703	0.0394265	1.56364
C	-1.536	-0.153137	-2.86824
O	-0.830606	-1.10274	-3.21278
O	-1.47223	0.452656	-1.65183
H	-2.29339	0.313029	-3.50156
H	-0.778674	0.0387981	-1.01794
C	-1.26301	2.88901	0.516826
O	-0.412848	2.04107	0.811129
O	-2.14469	2.79038	-0.501667
H	-1.39895	3.82946	1.05515
H	-2.02733	1.93868	-1.01879
C	5.54044	-0.299649	-0.00717411
O	5.35471	0.223932	-1.09398
O	4.78548	0.0236852	1.04212
H	6.3324	-1.03921	0.104835
H	4.1375	0.67722	0.803796
