 Entering Gaussian System, Link 0=g09
 Input=chooh-pair-s-3.gjf
 Output=chooh-pair-s-3.log
 Initial command:
 /usr/g09/l1.exe /scratch/litao/gaussian/Gau-19323.inp -scrdir=/scratch/litao/gaussian/
 Entering Link 1 = /usr/g09/l1.exe PID=     19324.
  
 Copyright (c) 1988,1990,1992,1993,1995,1998,2003,2009, Gaussian, Inc.
                  All Rights Reserved.
  
 This is part of the Gaussian(R) 09 program.  It is based on
 the Gaussian(R) 03 system (copyright 2003, Gaussian, Inc.),
 the Gaussian(R) 98 system (copyright 1998, Gaussian, Inc.),
 the Gaussian(R) 94 system (copyright 1995, Gaussian, Inc.),
 the Gaussian 92(TM) system (copyright 1992, Gaussian, Inc.),
 the Gaussian 90(TM) system (copyright 1990, Gaussian, Inc.),
 the Gaussian 88(TM) system (copyright 1988, Gaussian, Inc.),
 the Gaussian 86(TM) system (copyright 1986, Carnegie Mellon
 University), and the Gaussian 82(TM) system (copyright 1983,
 Carnegie Mellon University). Gaussian is a federally registered
 trademark of Gaussian, Inc.
  
 This software contains proprietary and confidential information,
 including trade secrets, belonging to Gaussian, Inc.
  
 This software is provided under written license and may be
 used, copied, transmitted, or stored only in accord with that
 written license.
  
 The following legend is applicable only to US Government
 contracts under FAR:
  
                    RESTRICTED RIGHTS LEGEND
  
 Use, reproduction and disclosure by the US Government is
 subject to restrictions as set forth in subparagraphs (a)
 and (c) of the Commercial Computer Software - Restricted
 Rights clause in FAR 52.227-19.
  
 Gaussian, Inc.
 340 Quinnipiac St., Bldg. 40, Wallingford CT 06492
  
  
 ---------------------------------------------------------------
 Warning -- This program may not be used in any manner that
 competes with the business of Gaussian, Inc. or will provide
 assistance to any competitor of Gaussian, Inc.  The licensee
 of this program is prohibited from giving any competitor of
 Gaussian, Inc. access to this program.  By using this program,
 the user acknowledges that Gaussian, Inc. is engaged in the
 business of creating and licensing software in the field of
 computational chemistry and represents and warrants to the
 licensee that it is not a competitor of Gaussian, Inc. and that
 it will not use this program in any manner prohibited above.
 ---------------------------------------------------------------
  

 Cite this work as:
 Gaussian 09, Revision A.01,
 M. J. Frisch, G. W. Trucks, H. B. Schlegel, G. E. Scuseria, 
 M. A. Robb, J. R. Cheeseman, G. Scalmani, V. Barone, B. Mennucci, 
 G. A. Petersson, H. Nakatsuji, M. Caricato, X. Li, H. P. Hratchian, 
 A. F. Izmaylov, J. Bloino, G. Zheng, J. L. Sonnenberg, M. Hada, 
 M. Ehara, K. Toyota, R. Fukuda, J. Hasegawa, M. Ishida, T. Nakajima, 
 Y. Honda, O. Kitao, H. Nakai, T. Vreven, J. A. Montgomery, Jr., 
 J. E. Peralta, F. Ogliaro, M. Bearpark, J. J. Heyd, E. Brothers, 
 K. N. Kudin, V. N. Staroverov, R. Kobayashi, J. Normand, 
 K. Raghavachari, A. Rendell, J. C. Burant, S. S. Iyengar, J. Tomasi, 
 M. Cossi, N. Rega, J. M. Millam, M. Klene, J. E. Knox, J. B. Cross, 
 V. Bakken, C. Adamo, J. Jaramillo, R. Gomperts, R. E. Stratmann, 
 O. Yazyev, A. J. Austin, R. Cammi, C. Pomelli, J. W. Ochterski, 
 R. L. Martin, K. Morokuma, V. G. Zakrzewski, G. A. Voth, 
 P. Salvador, J. J. Dannenberg, S. Dapprich, A. D. Daniels, 
 O. Farkas, J. B. Foresman, J. V. Ortiz, J. Cioslowski, 
 and D. J. Fox, Gaussian, Inc., Wallingford CT, 2009.
 
 ******************************************
 Gaussian 09:  EM64L-G09RevA.01  8-May-2009
                 9-May-2015 
 ******************************************
 %nprocshared=8
 Will use up to    8 processors via shared memory.
 %mem=8GB
 %chk=chooh-pair-s-3.chk
 ----------------
 #opt b3lyp/6-31g
 ----------------
 1/14=-1,18=20,19=15,26=3,38=1/1,3;
 2/9=110,12=2,17=6,18=5,40=1/2;
 3/5=1,6=6,11=2,16=1,25=1,30=1,71=1,74=-5/1,2,3;
 4//1;
 5/5=2,38=5/2;
 6/7=2,8=2,9=2,10=2,28=1/1;
 7//1,2,3,16;
 1/14=-1,18=20,19=15/3(2);
 2/9=110/2;
 99//99;
 2/9=110/2;
 3/5=1,6=6,11=2,16=1,25=1,30=1,71=1,74=-5/1,2,3;
 4/5=5,16=3/1;
 5/5=2,38=5/2;
 7//1,2,3,16;
 1/14=-1,18=20,19=15/3(-5);
 2/9=110/2;
 6/7=2,8=2,9=2,10=2,19=2,28=1/1;
 99/9=1/99;
 -------------------
 Title Card Required
 -------------------
 Symbolic Z-matrix:
 Charge =  0 Multiplicity = 1
 C                     1.3703    1.29988   0.00136 
 O                     1.42864   0.10505  -0.2427 
 O                     0.22874   1.92145   0.33342 
 H                     2.21423   2.00529  -0.01668 
 H                    -0.48853   1.23437   0.3316 
 C                    -1.37034  -1.29983  -0.00158 
 O                    -1.42857  -0.10513   0.24307 
 O                    -0.22878  -1.92142  -0.33359 
 H                    -2.21439  -2.00512   0.01581 
 H                     0.48858  -1.23443  -0.33128 
 C                     4.74132   0.07236   0.28983 
 O                     4.37201   1.09579  -0.26332 
 O                     4.15788  -1.09513   0.02136 
 H                     5.55694   0.11527   1.01068 
 H                     3.46592  -0.9873   -0.62155 
 

 GradGradGradGradGradGradGradGradGradGradGradGradGradGradGradGradGradGrad
 Berny optimization.
 Initialization pass.
                           ----------------------------
                           !    Initial Parameters    !
                           ! (Angstroms and Degrees)  !
 --------------------------                            --------------------------
 ! Name  Definition              Value          Derivative Info.                !
 --------------------------------------------------------------------------------
 ! R1    R(1,2)                  1.2209         estimate D2E/DX2                !
 ! R2    R(1,3)                  1.3416         estimate D2E/DX2                !
 ! R3    R(1,4)                  1.1001         estimate D2E/DX2                !
 ! R4    R(1,12)                 3.0203         estimate D2E/DX2                !
 ! R5    R(2,10)                 1.6388         estimate D2E/DX2                !
 ! R6    R(2,13)                 2.9931         estimate D2E/DX2                !
 ! R7    R(2,15)                 2.3425         estimate D2E/DX2                !
 ! R8    R(3,5)                  0.9933         estimate D2E/DX2                !
 ! R9    R(4,12)                 2.3546         estimate D2E/DX2                !
 ! R10   R(5,7)                  1.6388         estimate D2E/DX2                !
 ! R11   R(6,7)                  1.2209         estimate D2E/DX2                !
 ! R12   R(6,8)                  1.3416         estimate D2E/DX2                !
 ! R13   R(6,9)                  1.1001         estimate D2E/DX2                !
 ! R14   R(8,10)                 0.9933         estimate D2E/DX2                !
 ! R15   R(11,12)                1.2206         estimate D2E/DX2                !
 ! R16   R(11,13)                1.3325         estimate D2E/DX2                !
 ! R17   R(11,14)                1.0894         estimate D2E/DX2                !
 ! R18   R(13,15)                0.9507         estimate D2E/DX2                !
 ! A1    A(2,1,3)              122.927          estimate D2E/DX2                !
 ! A2    A(2,1,4)              125.988          estimate D2E/DX2                !
 ! A3    A(2,1,12)              82.4645         estimate D2E/DX2                !
 ! A4    A(3,1,4)              111.0849         estimate D2E/DX2                !
 ! A5    A(3,1,12)             153.987          estimate D2E/DX2                !
 ! A6    A(1,2,10)             141.5623         estimate D2E/DX2                !
 ! A7    A(1,2,13)             114.7306         estimate D2E/DX2                !
 ! A8    A(1,2,15)             122.0227         estimate D2E/DX2                !
 ! A9    A(10,2,13)            101.5413         estimate D2E/DX2                !
 ! A10   A(10,2,15)             96.2572         estimate D2E/DX2                !
 ! A11   A(1,3,5)              107.0694         estimate D2E/DX2                !
 ! A12   A(3,5,7)              168.4409         estimate D2E/DX2                !
 ! A13   A(7,6,8)              122.9274         estimate D2E/DX2                !
 ! A14   A(7,6,9)              125.9883         estimate D2E/DX2                !
 ! A15   A(8,6,9)              111.0843         estimate D2E/DX2                !
 ! A16   A(5,7,6)              141.5627         estimate D2E/DX2                !
 ! A17   A(6,8,10)             107.0687         estimate D2E/DX2                !
 ! A18   A(2,10,8)             168.4416         estimate D2E/DX2                !
 ! A19   A(12,11,13)           120.7216         estimate D2E/DX2                !
 ! A20   A(12,11,14)           119.5643         estimate D2E/DX2                !
 ! A21   A(13,11,14)           119.714          estimate D2E/DX2                !
 ! A22   A(1,12,11)            108.5213         estimate D2E/DX2                !
 ! A23   A(4,12,11)            123.6207         estimate D2E/DX2                !
 ! A24   A(2,13,11)             93.7672         estimate D2E/DX2                !
 ! A25   A(11,13,15)           110.8293         estimate D2E/DX2                !
 ! D1    D(3,1,2,10)             0.0302         estimate D2E/DX2                !
 ! D2    D(3,1,2,13)          -159.1454         estimate D2E/DX2                !
 ! D3    D(3,1,2,15)          -174.126          estimate D2E/DX2                !
 ! D4    D(4,1,2,10)          -179.9698         estimate D2E/DX2                !
 ! D5    D(4,1,2,13)            20.8546         estimate D2E/DX2                !
 ! D6    D(4,1,2,15)             5.874          estimate D2E/DX2                !
 ! D7    D(12,1,2,10)          173.9349         estimate D2E/DX2                !
 ! D8    D(12,1,2,13)           14.7592         estimate D2E/DX2                !
 ! D9    D(12,1,2,15)           -0.2213         estimate D2E/DX2                !
 ! D10   D(2,1,3,5)             -0.0033         estimate D2E/DX2                !
 ! D11   D(4,1,3,5)            179.9967         estimate D2E/DX2                !
 ! D12   D(12,1,3,5)          -166.1157         estimate D2E/DX2                !
 ! D13   D(2,1,12,11)          -41.6138         estimate D2E/DX2                !
 ! D14   D(3,1,12,11)          126.661          estimate D2E/DX2                !
 ! D15   D(1,2,10,8)             0.0436         estimate D2E/DX2                !
 ! D16   D(13,2,10,8)          160.8014         estimate D2E/DX2                !
 ! D17   D(15,2,10,8)          175.0617         estimate D2E/DX2                !
 ! D18   D(1,2,13,11)           -3.8191         estimate D2E/DX2                !
 ! D19   D(10,2,13,11)        -170.783          estimate D2E/DX2                !
 ! D20   D(1,3,5,7)             -0.0684         estimate D2E/DX2                !
 ! D21   D(3,5,7,6)              0.0427         estimate D2E/DX2                !
 ! D22   D(8,6,7,5)              0.0305         estimate D2E/DX2                !
 ! D23   D(9,6,7,5)           -179.9689         estimate D2E/DX2                !
 ! D24   D(7,6,8,10)            -0.0033         estimate D2E/DX2                !
 ! D25   D(9,6,8,10)           179.9961         estimate D2E/DX2                !
 ! D26   D(6,8,10,2)            -0.0692         estimate D2E/DX2                !
 ! D27   D(13,11,12,1)          50.3085         estimate D2E/DX2                !
 ! D28   D(13,11,12,4)          63.0369         estimate D2E/DX2                !
 ! D29   D(14,11,12,1)        -129.6919         estimate D2E/DX2                !
 ! D30   D(14,11,12,4)        -116.9635         estimate D2E/DX2                !
 ! D31   D(12,11,13,2)         -36.9349         estimate D2E/DX2                !
 ! D32   D(12,11,13,15)         -0.0005         estimate D2E/DX2                !
 ! D33   D(14,11,13,2)         143.0654         estimate D2E/DX2                !
 ! D34   D(14,11,13,15)        179.9999         estimate D2E/DX2                !
 --------------------------------------------------------------------------------
 Trust Radius=3.00D-01 FncErr=1.00D-07 GrdErr=1.00D-06
 Number of steps in this run=  87 maximum allowed number of steps= 100.
 GradGradGradGradGradGradGradGradGradGradGradGradGradGradGradGradGradGrad

                          Input orientation:                          
 ---------------------------------------------------------------------
 Center     Atomic      Atomic             Coordinates (Angstroms)
 Number     Number       Type             X           Y           Z
 ---------------------------------------------------------------------
      1          6           0        1.370300    1.299880    0.001359
      2          8           0        1.428640    0.105053   -0.242702
      3          8           0        0.228744    1.921450    0.333424
      4          1           0        2.214230    2.005290   -0.016677
      5          1           0       -0.488526    1.234370    0.331603
      6          6           0       -1.370340   -1.299830   -0.001581
      7          8           0       -1.428570   -0.105131    0.243067
      8          8           0       -0.228775   -1.921420   -0.333587
      9          1           0       -2.214390   -2.005120    0.015805
     10          1           0        0.488580   -1.234430   -0.331284
     11          6           0        4.741320    0.072358    0.289833
     12          8           0        4.372010    1.095790   -0.263323
     13          8           0        4.157880   -1.095130    0.021360
     14          1           0        5.556940    0.115268    1.010680
     15          1           0        3.465920   -0.987304   -0.621554
 ---------------------------------------------------------------------
                    Distance matrix (angstroms):
                    1          2          3          4          5
     1  C    0.000000
     2  O    1.220893   0.000000
     3  O    1.341554   2.251881   0.000000
     4  H    1.100067   2.068608   2.017859   0.000000
     5  H    1.889070   2.297979   0.993257   2.832050   0.000000
     6  C    3.777514   3.141039   3.611917   4.875776   2.703845
     7  O    3.141043   2.905821   2.619520   4.217978   1.638836
     8  O    3.611925   2.619519   3.927070   4.635489   3.235577
     9  H    4.875781   4.217976   4.635487   5.974707   3.684105
    10  H    2.703851   1.638833   3.235573   3.684105   2.736627
    11  C    3.599139   3.355371   4.876924   3.196304   5.357547
    12  O    3.020260   3.105706   4.266670   2.354578   4.898770
    13  O    3.675197   2.993145   4.963391   3.659484   5.206910
    14  H    4.466541   4.314387   5.666625   3.975092   6.185563
    15  H    3.163993   2.342495   4.455574   3.299731   4.634866
                    6          7          8          9         10
     6  C    0.000000
     7  O    1.220880   0.000000
     8  O    1.341556   2.251876   0.000000
     9  H    1.100071   2.068603   2.017857   0.000000
    10  H    1.889065   2.297969   0.993257   2.832045   0.000000
    11  C    6.270583   6.172620   5.391257   7.264496   4.492135
    12  O    6.227527   5.945197   5.502337   7.285206   4.529412
    13  O    5.532056   5.677823   4.477888   6.436920   3.688838
    14  H    7.142435   7.031014   6.279303   8.116612   5.413947
    15  H    4.885842   5.047953   3.821815   5.805868   3.001646
                   11         12         13         14         15
    11  C    0.000000
    12  O    1.220567   0.000000
    13  O    1.332482   2.219691   0.000000
    14  H    1.089357   1.997139   2.097900   0.000000
    15  H    1.892130   2.299698   0.950670   2.872667   0.000000
 Stoichiometry    C3H6O6
 Framework group  C1[X(C3H6O6)]
 Deg. of freedom    39
 Full point group                 C1      NOp   1
 Largest Abelian subgroup         C1      NOp   1
 Largest concise Abelian subgroup C1      NOp   1
                         Standard orientation:                         
 ---------------------------------------------------------------------
 Center     Atomic      Atomic             Coordinates (Angstroms)
 Number     Number       Type             X           Y           Z
 ---------------------------------------------------------------------
      1          6           0        0.092302    1.300796   -0.119747
      2          8           0       -0.022753    0.092871   -0.254879
      3          8           0       -0.947576    2.107970    0.138881
      4          1           0        1.029533    1.872610   -0.188837
      5          1           0       -1.756804    1.534158    0.188368
      6          6           0       -2.996001   -0.866134    0.071050
      7          8           0       -2.880856    0.341702    0.206779
      8          8           0       -1.956117   -1.673324   -0.187518
      9          1           0       -3.933333   -1.437872    0.139480
     10          1           0       -1.146819   -1.099569   -0.236516
     11          6           0        3.249611   -0.368528    0.325860
     12          8           0        3.033107    0.642980   -0.322030
     13          8           0        2.503534   -1.459219    0.154770
     14          1           0        4.061977   -0.378394    1.051573
     15          1           0        1.835264   -1.311572   -0.505071
 ---------------------------------------------------------------------
 Rotational constants (GHZ):      2.4274008      0.6838290      0.5422883
 Standard basis: 6-31G (6D, 7F)
 There are    93 symmetry adapted basis functions of A   symmetry.
 Integral buffers will be    131072 words long.
 Raffenetti 2 integral format.
 Two-electron integral symmetry is turned on.
    93 basis functions,   222 primitive gaussians,    93 cartesian basis functions
    36 alpha electrons       36 beta electrons
       nuclear repulsion energy       445.5679423845 Hartrees.
 NAtoms=   15 NActive=   15 NUniq=   15 SFac= 7.50D-01 NAtFMM=   80 NAOKFM=F Big=F
 One-electron integrals computed using PRISM.
 NBasis=    93 RedAO= T  NBF=    93
 NBsUse=    93 1.00D-06 NBFU=    93
 Harris functional with IExCor=  402 diagonalized for initial guess.
 ExpMin= 1.61D-01 ExpMax= 5.48D+03 ExpMxC= 8.25D+02 IAcc=1 IRadAn=         1 AccDes= 0.00D+00
 HarFok:  IExCor=  402 AccDes= 0.00D+00 IRadAn=         1 IDoV= 1
 ScaDFX=  1.000000  1.000000  1.000000  1.000000
 FoFCou: FMM=F IPFlag=           0 FMFlag=      100000 FMFlg1=           0
         NFxFlg=           0 DoJE=T BraDBF=F KetDBF=T FulRan=T
         Omega=  0.000000  0.000000  1.000000  0.000000  0.000000 ICntrl=     500 IOpCl=  0
         NMat0=    1 NMatS0=    1 NMatT0=    0 NMatD0=    1 NMtDS0=    0 NMtDT0=    0
         I1Cent=           4 NGrid=           0.
 Petite list used in FoFCou.
 Initial guess orbital symmetries:
       Occupied  (A) (A) (A) (A) (A) (A) (A) (A) (A) (A) (A) (A)
                 (A) (A) (A) (A) (A) (A) (A) (A) (A) (A) (A) (A)
                 (A) (A) (A) (A) (A) (A) (A) (A) (A) (A) (A) (A)
       Virtual   (A) (A) (A) (A) (A) (A) (A) (A) (A) (A) (A) (A)
                 (A) (A) (A) (A) (A) (A) (A) (A) (A) (A) (A) (A)
                 (A) (A) (A) (A) (A) (A) (A) (A) (A) (A) (A) (A)
                 (A) (A) (A) (A) (A) (A) (A) (A) (A) (A) (A) (A)
                 (A) (A) (A) (A) (A) (A) (A) (A) (A)
 The electronic state of the initial guess is 1-A.
 Requested convergence on RMS density matrix=1.00D-08 within 128 cycles.
 Requested convergence on MAX density matrix=1.00D-06.
 Requested convergence on             energy=1.00D-06.
 No special actions if energy rises.
 Keep R1 ints in memory in canonical form, NReq=10641990.
 Integral accuracy reduced to 1.0D-05 until final iterations.
 Initial convergence to 1.0D-05 achieved.  Increase integral accuracy.
 SCF Done:  E(RB3LYP) =  -569.091497919     A.U. after   15 cycles
             Convg  =    0.7407D-08             -V/T =  2.0048

 **********************************************************************

            Population analysis using the SCF density.

 **********************************************************************

 Orbital symmetries:
       Occupied  (A) (A) (A) (A) (A) (A) (A) (A) (A) (A) (A) (A)
                 (A) (A) (A) (A) (A) (A) (A) (A) (A) (A) (A) (A)
                 (A) (A) (A) (A) (A) (A) (A) (A) (A) (A) (A) (A)
       Virtual   (A) (A) (A) (A) (A) (A) (A) (A) (A) (A) (A) (A)
                 (A) (A) (A) (A) (A) (A) (A) (A) (A) (A) (A) (A)
                 (A) (A) (A) (A) (A) (A) (A) (A) (A) (A) (A) (A)
                 (A) (A) (A) (A) (A) (A) (A) (A) (A) (A) (A) (A)
                 (A) (A) (A) (A) (A) (A) (A) (A) (A)
 The electronic state is 1-A.
 Alpha  occ. eigenvalues --  -19.20477 -19.20288 -19.20016 -19.18472 -19.18201
 Alpha  occ. eigenvalues --  -19.15721 -10.35758 -10.35262 -10.34079  -1.15506
 Alpha  occ. eigenvalues --   -1.14673  -1.14214  -1.06372  -1.05091  -1.04599
 Alpha  occ. eigenvalues --   -0.69503  -0.68393  -0.66413  -0.56990  -0.55210
 Alpha  occ. eigenvalues --   -0.53680  -0.52008  -0.49703  -0.48409  -0.47470
 Alpha  occ. eigenvalues --   -0.46610  -0.45915  -0.43277  -0.39641  -0.38018
 Alpha  occ. eigenvalues --   -0.34723  -0.33749  -0.33291  -0.32486  -0.30723
 Alpha  occ. eigenvalues --   -0.29131
 Alpha virt. eigenvalues --   -0.03555  -0.02935  -0.02007   0.07562   0.10439
 Alpha virt. eigenvalues --    0.12607   0.14098   0.15185   0.18791   0.24169
 Alpha virt. eigenvalues --    0.24941   0.26248   0.27028   0.29438   0.34076
 Alpha virt. eigenvalues --    0.47190   0.49348   0.52283   0.53645   0.54291
 Alpha virt. eigenvalues --    0.57463   0.61642   0.65609   0.68870   0.69451
 Alpha virt. eigenvalues --    0.71933   0.75357   0.76762   0.79040   0.81833
 Alpha virt. eigenvalues --    0.84539   0.85674   0.85868   0.87775   0.87819
 Alpha virt. eigenvalues --    0.90471   0.93793   0.96357   0.99107   0.99997
 Alpha virt. eigenvalues --    1.02530   1.06932   1.11564   1.13482   1.17703
 Alpha virt. eigenvalues --    1.20425   1.22349   1.23689   1.26506   1.34799
 Alpha virt. eigenvalues --    1.48652   1.63570   1.66053   1.68660   1.75755
 Alpha virt. eigenvalues --    1.79336   1.91007
          Condensed to atoms (all electrons):
              1          2          3          4          5          6
     1  C    4.673257   0.382052   0.220344   0.366618  -0.024081   0.001596
     2  O    0.382052   8.211049  -0.097173  -0.057552   0.005792   0.002990
     3  O    0.220344  -0.097173   8.289148  -0.072772   0.213968   0.000793
     4  H    0.366618  -0.057552  -0.072772   0.531844   0.004272   0.000024
     5  H   -0.024081   0.005792   0.213968   0.004272   0.312324  -0.007208
     6  C    0.001596   0.002990   0.000793   0.000024  -0.007208   4.644101
     7  O    0.003447  -0.005569  -0.030632  -0.000070   0.070842   0.406208
     8  O    0.000671  -0.030973   0.000148  -0.000052  -0.000146   0.224275
     9  H    0.000027  -0.000098  -0.000055   0.000000   0.000449   0.372662
    10  H   -0.006693   0.070499  -0.000354   0.000453   0.000753  -0.025786
    11  C    0.001130   0.000350  -0.000010  -0.001205   0.000001   0.000000
    12  O    0.000112  -0.001784   0.000073   0.013974   0.000001   0.000000
    13  O   -0.000966  -0.003214  -0.000003   0.000252   0.000000   0.000000
    14  H    0.000053  -0.000049   0.000000   0.000133   0.000000   0.000000
    15  H    0.000991   0.018471   0.000084  -0.000373  -0.000006  -0.000007
              7          8          9         10         11         12
     1  C    0.003447   0.000671   0.000027  -0.006693   0.001130   0.000112
     2  O   -0.005569  -0.030973  -0.000098   0.070499   0.000350  -0.001784
     3  O   -0.030632   0.000148  -0.000055  -0.000354  -0.000010   0.000073
     4  H   -0.000070  -0.000052   0.000000   0.000453  -0.001205   0.013974
     5  H    0.070842  -0.000146   0.000449   0.000753   0.000001   0.000001
     6  C    0.406208   0.224275   0.372662  -0.025786   0.000000   0.000000
     7  O    8.162723  -0.098163  -0.058584   0.005554   0.000000   0.000000
     8  O   -0.098163   8.297820  -0.082312   0.214840  -0.000001   0.000000
     9  H   -0.058584  -0.082312   0.584413   0.004669   0.000000   0.000000
    10  H    0.005554   0.214840   0.004669   0.313488  -0.000004  -0.000004
    11  C    0.000000  -0.000001   0.000000  -0.000004   4.672971   0.466551
    12  O    0.000000   0.000000   0.000000  -0.000004   0.466551   8.106417
    13  O    0.000000  -0.000006   0.000000   0.000130   0.165888  -0.113331
    14  H    0.000000   0.000000   0.000000   0.000000   0.356293  -0.067164
    15  H    0.000003   0.000025   0.000000   0.000519  -0.015222   0.007754
             13         14         15
     1  C   -0.000966   0.000053   0.000991
     2  O   -0.003214  -0.000049   0.018471
     3  O   -0.000003   0.000000   0.000084
     4  H    0.000252   0.000133  -0.000373
     5  H    0.000000   0.000000  -0.000006
     6  C    0.000000   0.000000  -0.000007
     7  O    0.000000   0.000000   0.000003
     8  O   -0.000006   0.000000   0.000025
     9  H    0.000000   0.000000   0.000000
    10  H    0.000130   0.000000   0.000519
    11  C    0.165888   0.356293  -0.015222
    12  O   -0.113331  -0.067164   0.007754
    13  O    8.311132  -0.077597   0.231784
    14  H   -0.077597   0.608390   0.006530
    15  H    0.231784   0.006530   0.349264
 Mulliken atomic charges:
              1
     1  C    0.381442
     2  O   -0.494791
     3  O   -0.523559
     4  H    0.214454
     5  H    0.423041
     6  C    0.380352
     7  O   -0.455759
     8  O   -0.526127
     9  H    0.178829
    10  H    0.421937
    11  C    0.353257
    12  O   -0.412600
    13  O   -0.514068
    14  H    0.173411
    15  H    0.400182
 Sum of Mulliken atomic charges =   0.00000
 Mulliken charges with hydrogens summed into heavy atoms:
              1
     1  C    0.595896
     2  O   -0.494791
     3  O   -0.100518
     6  C    0.559181
     7  O   -0.455759
     8  O   -0.104191
    11  C    0.526667
    12  O   -0.412600
    13  O   -0.113885
 Sum of Mulliken charges with hydrogens summed into heavy atoms =   0.00000
 Electronic spatial extent (au):  <R**2>=           1887.4272
 Charge=              0.0000 electrons
 Dipole moment (field-independent basis, Debye):
    X=             -0.3225    Y=             -1.1644    Z=              0.3404  Tot=              1.2552
 Quadrupole moment (field-independent basis, Debye-Ang):
   XX=            -44.8395   YY=            -60.1290   ZZ=            -49.6553
   XY=              2.6342   XZ=              3.1870   YZ=              0.8642
 Traceless Quadrupole moment (field-independent basis, Debye-Ang):
   XX=              6.7018   YY=             -8.5878   ZZ=              1.8859
   XY=              2.6342   XZ=              3.1870   YZ=              0.8642
 Octapole moment (field-independent basis, Debye-Ang**2):
  XXX=             -7.1373  YYY=              1.4127  ZZZ=             -0.6052  XYY=             -1.6953
  XXY=            -27.7715  XXZ=             14.2578  XZZ=              2.4528  YZZ=             -0.9208
  YYZ=             -3.9872  XYZ=              7.7242
 Hexadecapole moment (field-independent basis, Debye-Ang**3):
 XXXX=          -1496.7740 YYYY=           -555.8652 ZZZZ=            -57.0118 XXXY=             33.5657
 XXXZ=             61.0915 YYYX=             11.7939 YYYZ=             -0.2574 ZZZX=             -0.3592
 ZZZY=              1.5050 XXYY=           -395.4871 XXZZ=           -280.3834 YYZZ=            -90.3467
 XXYZ=              4.0504 YYXZ=            -10.4725 ZZXY=             -4.3725
 N-N= 4.455679423845D+02 E-N=-2.229901239559D+03  KE= 5.663459467356D+02
 Calling FoFJK, ICntrl=      2127 FMM=F ISym2X=0 I1Cent= 0 IOpClX= 0 NMat=1 NMatS=1 NMatT=0.
 ***** Axes restored to original set *****
 -------------------------------------------------------------------
 Center     Atomic                   Forces (Hartrees/Bohr)
 Number     Number              X              Y              Z
 -------------------------------------------------------------------
      1        6          -0.001356887    0.050342225    0.008920598
      2        8           0.018685425   -0.039428179   -0.011781617
      3        8           0.009143934    0.001653243   -0.001178692
      4        1          -0.001603219   -0.010250588   -0.001890272
      5        1          -0.015656532   -0.002074511    0.002460285
      6        6           0.002100872   -0.034612268   -0.007125038
      7        8          -0.019027479    0.028820195    0.009158133
      8        8          -0.008243395   -0.006973022   -0.000069098
      9        1           0.002055777    0.007059111    0.001016442
     10        1           0.013514444    0.003494812   -0.001504839
     11        6           0.004187430    0.014313402   -0.000024048
     12        8          -0.003904035    0.032412395   -0.010264227
     13        8           0.029900972   -0.031826693    0.028449049
     14        1          -0.001390685   -0.017743332    0.002579351
     15        1          -0.028406623    0.004813210   -0.018746028
 -------------------------------------------------------------------
 Cartesian Forces:  Max     0.050342225 RMS     0.017401199

 GradGradGradGradGradGradGradGradGradGradGradGradGradGradGradGradGradGrad
 Berny optimization.
 Internal  Forces:  Max     0.042912290 RMS     0.010330329
 Search for a local minimum.
 Step number   1 out of a maximum of   87
 All quantities printed in internal units (Hartrees-Bohrs-Radians)
 Mixed Optimization -- RFO/linear search
 Second derivative matrix not updated -- first step.
     Eigenvalues ---    0.00418   0.00664   0.01843   0.02015   0.02131
     Eigenvalues ---    0.02232   0.02694   0.03051   0.03215   0.03362
     Eigenvalues ---    0.03472   0.03655   0.03828   0.05121   0.08384
     Eigenvalues ---    0.09236   0.09793   0.14535   0.15748   0.16000
     Eigenvalues ---    0.16000   0.18394   0.18790   0.19593   0.19967
     Eigenvalues ---    0.21320   0.23167   0.31303   0.33674   0.34887
     Eigenvalues ---    0.46572   0.48332   0.48894   0.54756   0.56790
     Eigenvalues ---    0.56858   0.82061   0.90281   0.941021000.00000
     Eigenvalues --- 1000.000001000.000001000.000001000.000001000.00000
     Eigenvalues --- 1000.000001000.000001000.000001000.000001000.00000
     Eigenvalues --- 1000.000001000.000001000.000001000.000001000.00000
     Eigenvalues --- 1000.000001000.000001000.000001000.000001000.00000
     Eigenvalues --- 1000.000001000.000001000.000001000.000001000.00000
     Eigenvalues --- 1000.000001000.000001000.000001000.000001000.00000
     Eigenvalues --- 1000.000001000.000001000.000001000.000001000.00000
     Eigenvalues --- 1000.000001000.00000
 RFO step:  Lambda=-2.08469505D-02 EMin= 4.17752205D-03
 Linear search not attempted -- first point.
 Maximum step size (   0.300) exceeded in Quadratic search.
    -- Step size scaled by   0.949
 Iteration  1 RMS(Cart)=  0.04944152 RMS(Int)=  0.00167264
 Iteration  2 RMS(Cart)=  0.00175893 RMS(Int)=  0.00044480
 Iteration  3 RMS(Cart)=  0.00000318 RMS(Int)=  0.00044479
 Iteration  4 RMS(Cart)=  0.00000000 RMS(Int)=  0.00044479
 Variable       Old X    -DE/DX   Delta X   Delta X   Delta X     New X
                                 (Linear)    (Quad)   (Total)
    R1        2.30715   0.04291   0.00000   0.04134   0.04120   2.34835
    R2        2.53517   0.00888   0.00000   0.01408   0.01404   2.54921
    R3        2.07882  -0.00710   0.00000  -0.01828  -0.01797   2.06085
    R4        5.70746   0.00200   0.00000   0.03474   0.03436   5.74183
    R5        3.09695   0.00307   0.00000   0.02825   0.02814   3.12509
    R6        5.65622   0.00741   0.00000   0.04869   0.04814   5.70436
    R7        4.42667  -0.00636   0.00000  -0.05297  -0.05256   4.37412
    R8        1.87698   0.01739   0.00000   0.03226   0.03235   1.90933
    R9        4.44951  -0.00238   0.00000  -0.01936  -0.01895   4.43056
   R10        3.09695   0.00417   0.00000   0.03740   0.03752   3.13447
   R11        2.30713   0.03245   0.00000   0.03178   0.03190   2.33903
   R12        2.53517   0.01077   0.00000   0.01758   0.01761   2.55279
   R13        2.07883  -0.00609   0.00000  -0.01616  -0.01616   2.06267
   R14        1.87698   0.01598   0.00000   0.02990   0.02981   1.90679
   R15        2.30654   0.02950   0.00000   0.03079   0.03057   2.33710
   R16        2.51803   0.02000   0.00000   0.03134   0.03135   2.54937
   R17        2.05859  -0.00003   0.00000  -0.00008  -0.00008   2.05850
   R18        1.79651   0.02893   0.00000   0.05210   0.05296   1.84947
    A1        2.14548   0.00005   0.00000   0.00179   0.00173   2.14721
    A2        2.19891  -0.00424   0.00000  -0.03083  -0.03116   2.16774
    A3        1.43928  -0.00020   0.00000   0.00170   0.00166   1.44093
    A4        1.93880   0.00418   0.00000   0.02904   0.02940   1.96820
    A5        2.68758  -0.00005   0.00000  -0.00438  -0.00431   2.68327
    A6        2.47073  -0.00987   0.00000  -0.05140  -0.05150   2.41922
    A7        2.00243   0.00210   0.00000   0.01287   0.01281   2.01524
    A8        2.12970   0.00767   0.00000   0.02983   0.02995   2.15965
    A9        1.77223   0.00663   0.00000   0.03497   0.03526   1.80749
   A10        1.68000   0.00224   0.00000   0.02045   0.02025   1.70025
   A11        1.86871   0.01627   0.00000   0.07955   0.07951   1.94822
   A12        2.93985  -0.00548   0.00000  -0.02234  -0.02223   2.91762
   A13        2.14549   0.00765   0.00000   0.02969   0.02982   2.17531
   A14        2.19891  -0.00823   0.00000  -0.03800  -0.03806   2.16085
   A15        1.93879   0.00059   0.00000   0.00831   0.00824   1.94703
   A16        2.47073  -0.01423   0.00000  -0.07725  -0.07696   2.39377
   A17        1.86870   0.01248   0.00000   0.06508   0.06498   1.93368
   A18        2.93986  -0.00686   0.00000  -0.02512  -0.02537   2.91450
   A19        2.10699   0.01243   0.00000   0.06137   0.06107   2.16806
   A20        2.08679   0.01229   0.00000   0.06648   0.06652   2.15331
   A21        2.08940  -0.02472   0.00000  -0.12785  -0.12778   1.96163
   A22        1.89405  -0.00466   0.00000  -0.01221  -0.01243   1.88163
   A23        2.15759  -0.00515   0.00000  -0.01217  -0.01329   2.14429
   A24        1.63655  -0.00759   0.00000  -0.02681  -0.02682   1.60973
   A25        1.93434   0.00149   0.00000   0.00155   0.00080   1.93514
    D1        0.00053   0.00102   0.00000  -0.00128  -0.00119  -0.00066
    D2       -2.77761   0.00417   0.00000   0.00369   0.00291  -2.77470
    D3       -3.03907  -0.00009   0.00000   0.01700   0.01798  -3.02109
    D4       -3.14106  -0.00054   0.00000  -0.01114  -0.01101   3.13111
    D5        0.36398   0.00261   0.00000  -0.00617  -0.00690   0.35708
    D6        0.10252  -0.00165   0.00000   0.00713   0.00817   0.11069
    D7        3.03574   0.00008   0.00000  -0.00615  -0.00611   3.02962
    D8        0.25760   0.00323   0.00000  -0.00118  -0.00201   0.25559
    D9       -0.00386  -0.00103   0.00000   0.01212   0.01306   0.00920
   D10       -0.00006  -0.00103   0.00000  -0.00292  -0.00311  -0.00317
   D11        3.14153   0.00032   0.00000   0.00563   0.00569  -3.13596
   D12       -2.89927   0.00112   0.00000   0.00619   0.00609  -2.89318
   D13       -0.72630   0.00586   0.00000   0.04578   0.04601  -0.68029
   D14        2.21065   0.00406   0.00000   0.03841   0.03858   2.24924
   D15        0.00076   0.00043   0.00000   0.00708   0.00700   0.00776
   D16        2.80651  -0.00259   0.00000   0.00209   0.00258   2.80909
   D17        3.05540   0.00177   0.00000  -0.00705  -0.00759   3.04782
   D18       -0.06666  -0.00289   0.00000  -0.01612  -0.01501  -0.08167
   D19       -2.98073   0.00222   0.00000   0.00355   0.00436  -2.97636
   D20       -0.00119   0.00040   0.00000   0.00351   0.00348   0.00229
   D21        0.00074   0.00033   0.00000   0.00160   0.00161   0.00236
   D22        0.00053   0.00012   0.00000  -0.00080  -0.00075  -0.00022
   D23       -3.14105  -0.00010   0.00000  -0.00135  -0.00131   3.14083
   D24       -0.00006  -0.00029   0.00000  -0.00217  -0.00215  -0.00221
   D25        3.14152  -0.00010   0.00000  -0.00169  -0.00165   3.13987
   D26       -0.00121  -0.00051   0.00000  -0.00178  -0.00187  -0.00308
   D27        0.87805   0.00079   0.00000  -0.03267  -0.03331   0.84473
   D28        1.10020  -0.00358   0.00000  -0.05863  -0.05902   1.04118
   D29       -2.26355   0.00165   0.00000  -0.01148  -0.01080  -2.27435
   D30       -2.04140  -0.00272   0.00000  -0.03744  -0.03651  -2.07790
   D31       -0.64464   0.00148   0.00000   0.02428   0.02440  -0.62023
   D32       -0.00001  -0.00079   0.00000  -0.04534  -0.04546  -0.04547
   D33        2.49696   0.00062   0.00000   0.00305   0.00407   2.50103
   D34        3.14159  -0.00165   0.00000  -0.06656  -0.06579   3.07580
         Item               Value     Threshold  Converged?
 Maximum Force            0.042912     0.000450     NO 
 RMS     Force            0.010330     0.000300     NO 
 Maximum Displacement     0.209250     0.001800     NO 
 RMS     Displacement     0.049391     0.001200     NO 
 Predicted change in Energy=-1.131643D-02
 GradGradGradGradGradGradGradGradGradGradGradGradGradGradGradGradGradGrad

                          Input orientation:                          
 ---------------------------------------------------------------------
 Center     Atomic      Atomic             Coordinates (Angstroms)
 Number     Number       Type             X           Y           Z
 ---------------------------------------------------------------------
      1          6           0        1.384103    1.297087   -0.007703
      2          8           0        1.477100    0.083710   -0.259416
      3          8           0        0.219404    1.892356    0.322283
      4          1           0        2.224697    1.991766   -0.019366
      5          1           0       -0.545937    1.232811    0.332935
      6          6           0       -1.424708   -1.299421    0.002213
      7          8           0       -1.539300   -0.093261    0.255399
      8          8           0       -0.263900   -1.908611   -0.323794
      9          1           0       -2.257610   -2.004751    0.016329
     10          1           0        0.497324   -1.246377   -0.334984
     11          6           0        4.788242    0.116866    0.273792
     12          8           0        4.410929    1.174998   -0.243435
     13          8           0        4.244487   -1.090325    0.014926
     14          1           0        5.589744    0.061850    1.009433
     15          1           0        3.489387   -1.007603   -0.602188
 ---------------------------------------------------------------------
                    Distance matrix (angstroms):
                    1          2          3          4          5
     1  C    0.000000
     2  O    1.242695   0.000000
     3  O    1.348985   2.278458   0.000000
     4  H    1.090557   2.063299   2.036617   0.000000
     5  H    1.960924   2.400831   1.010377   2.894226   0.000000
     6  C    3.825098   3.225213   3.604579   4.914320   2.700706
     7  O    3.247858   3.065131   2.653336   4.311672   1.658689
     8  O    3.618332   2.646615   3.885660   4.636673   3.221703
     9  H    4.915769   4.287863   4.627813   6.005373   3.675850
    10  H    2.713430   1.653725   3.218833   3.683613   2.771440
    11  C    3.613906   3.353963   4.901938   3.189506   5.449981
    12  O    3.038445   3.130257   4.289932   2.344552   4.990597
    13  O    3.725861   3.018618   5.019178   3.685107   5.333503
    14  H    4.499755   4.303986   5.715198   4.013296   6.282944
    15  H    3.177613   2.314683   4.467348   3.306862   4.709326
                    6          7          8          9         10
     6  C    0.000000
     7  O    1.237763   0.000000
     8  O    1.350878   2.292948   0.000000
     9  H    1.091520   2.055947   2.024798   0.000000
    10  H    1.952108   2.413725   1.009030   2.878926   0.000000
    11  C    6.378117   6.331057   5.475746   7.362851   4.543238
    12  O    6.343323   6.104305   5.600814   7.392408   4.603014
    13  O    5.673065   5.874025   4.594549   6.566083   3.766699
    14  H    7.215961   7.170489   6.318652   8.175455   5.426939
    15  H    4.959717   5.182584   3.869946   5.865565   3.013446
                   11         12         13         14         15
    11  C    0.000000
    12  O    1.236743   0.000000
    13  O    1.349070   2.286076   0.000000
    14  H    1.089312   2.048996   2.031321   0.000000
    15  H    1.928417   2.396182   0.978698   2.855267   0.000000
 Stoichiometry    C3H6O6
 Framework group  C1[X(C3H6O6)]
 Deg. of freedom    39
 Full point group                 C1      NOp   1
 Largest Abelian subgroup         C1      NOp   1
 Largest concise Abelian subgroup C1      NOp   1
                         Standard orientation:                         
 ---------------------------------------------------------------------
 Center     Atomic      Atomic             Coordinates (Angstroms)
 Number     Number       Type             X           Y           Z
 ---------------------------------------------------------------------
      1          6           0        0.104576    1.287318   -0.123177
      2          8           0        0.019176    0.055963   -0.267271
      3          8           0       -0.961038    2.072916    0.135786
      4          1           0        1.038044    1.848121   -0.181933
      5          1           0       -1.814909    1.535661    0.191661
      6          6           0       -3.054887   -0.860376    0.068075
      7          8           0       -2.991911    0.367149    0.213925
      8          8           0       -1.995174   -1.658774   -0.185779
      9          1           0       -3.982315   -1.432581    0.130317
     10          1           0       -1.144980   -1.118316   -0.242487
     11          6           0        3.297889   -0.347682    0.312541
     12          8           0        3.081336    0.704498   -0.300285
     13          8           0        2.583560   -1.480638    0.150873
     14          1           0        4.080659   -0.454106    1.062571
     15          1           0        1.850437   -1.343250   -0.482770
 ---------------------------------------------------------------------
 Rotational constants (GHZ):      2.4440568      0.6543876      0.5241546
 Standard basis: 6-31G (6D, 7F)
 There are    93 symmetry adapted basis functions of A   symmetry.
 Integral buffers will be    131072 words long.
 Raffenetti 2 integral format.
 Two-electron integral symmetry is turned on.
    93 basis functions,   222 primitive gaussians,    93 cartesian basis functions
    36 alpha electrons       36 beta electrons
       nuclear repulsion energy       439.5000845790 Hartrees.
 NAtoms=   15 NActive=   15 NUniq=   15 SFac= 7.50D-01 NAtFMM=   80 NAOKFM=F Big=F
 One-electron integrals computed using PRISM.
 NBasis=    93 RedAO= T  NBF=    93
 NBsUse=    93 1.00D-06 NBFU=    93
 Initial guess read from the read-write file.
 B after Tr=     0.000000    0.000000    0.000000
         Rot=    1.000000    0.000000    0.000000    0.000000 Ang=   0.00 deg.
 Initial guess orbital symmetries:
       Occupied  (A) (A) (A) (A) (A) (A) (A) (A) (A) (A) (A) (A)
                 (A) (A) (A) (A) (A) (A) (A) (A) (A) (A) (A) (A)
                 (A) (A) (A) (A) (A) (A) (A) (A) (A) (A) (A) (A)
       Virtual   (A) (A) (A) (A) (A) (A) (A) (A) (A) (A) (A) (A)
                 (A) (A) (A) (A) (A) (A) (A) (A) (A) (A) (A) (A)
                 (A) (A) (A) (A) (A) (A) (A) (A) (A) (A) (A) (A)
                 (A) (A) (A) (A) (A) (A) (A) (A) (A) (A) (A) (A)
                 (A) (A) (A) (A) (A) (A) (A) (A) (A)
 Harris functional with IExCor=  402 diagonalized for initial guess.
 ExpMin= 1.61D-01 ExpMax= 5.48D+03 ExpMxC= 8.25D+02 IAcc=1 IRadAn=         1 AccDes= 0.00D+00
 HarFok:  IExCor=  402 AccDes= 0.00D+00 IRadAn=         1 IDoV= 1
 ScaDFX=  1.000000  1.000000  1.000000  1.000000
 FoFCou: FMM=F IPFlag=           0 FMFlag=      100000 FMFlg1=           0
         NFxFlg=           0 DoJE=T BraDBF=F KetDBF=T FulRan=T
         Omega=  0.000000  0.000000  1.000000  0.000000  0.000000 ICntrl=     500 IOpCl=  0
         NMat0=    1 NMatS0=    1 NMatT0=    0 NMatD0=    1 NMtDS0=    0 NMtDT0=    0
         I1Cent=           4 NGrid=           0.
 Petite list used in FoFCou.
 Requested convergence on RMS density matrix=1.00D-08 within 128 cycles.
 Requested convergence on MAX density matrix=1.00D-06.
 Requested convergence on             energy=1.00D-06.
 No special actions if energy rises.
 Keep R1 ints in memory in canonical form, NReq=10641990.
 Integral accuracy reduced to 1.0D-05 until final iterations.
 Initial convergence to 1.0D-05 achieved.  Increase integral accuracy.
 SCF Done:  E(RB3LYP) =  -569.103695573     A.U. after   13 cycles
             Convg  =    0.6385D-08             -V/T =  2.0056
 Calling FoFJK, ICntrl=      2127 FMM=F ISym2X=0 I1Cent= 0 IOpClX= 0 NMat=1 NMatS=1 NMatT=0.
 ***** Axes restored to original set *****
 -------------------------------------------------------------------
 Center     Atomic                   Forces (Hartrees/Bohr)
 Number     Number              X              Y              Z
 -------------------------------------------------------------------
      1        6          -0.017476424    0.014469198    0.006038995
      2        8           0.012926480   -0.011915538   -0.005386528
      3        8           0.010512439   -0.002891507   -0.002651127
      4        1           0.000123982   -0.003700026   -0.001335085
      5        1           0.000324559   -0.000379810   -0.000199782
      6        6           0.011861144   -0.010637706   -0.004087416
      7        8          -0.008588961    0.006614455    0.002813766
      8        8          -0.008664594    0.003237098    0.001962123
      9        1           0.000157764    0.001469371    0.000257097
     10        1          -0.000718357    0.001129559    0.000558085
     11        6          -0.002398151    0.014089163   -0.002356835
     12        8           0.002902107   -0.000732321    0.002862158
     13        8           0.006127228   -0.007811461    0.003220935
     14        1           0.001264774   -0.004575000   -0.000267017
     15        1          -0.008353990    0.001634525   -0.001429369
 -------------------------------------------------------------------
 Cartesian Forces:  Max     0.017476424 RMS     0.006589170

 GradGradGradGradGradGradGradGradGradGradGradGradGradGradGradGradGradGrad
 Berny optimization.
 Using GEDIIS/GDIIS optimizer.
 Internal  Forces:  Max     0.009662567 RMS     0.002901990
 Search for a local minimum.
 Step number   2 out of a maximum of   87
 All quantities printed in internal units (Hartrees-Bohrs-Radians)
 Mixed Optimization -- RFO/linear search
 Update second derivatives using D2CorX and points    1    2
 DE= -1.22D-02 DEPred=-1.13D-02 R= 1.08D+00
 SS=  1.41D+00  RLast= 3.00D-01 DXNew= 5.0454D-01 8.9977D-01
 Trust test= 1.08D+00 RLast= 3.00D-01 DXMaxT set to 5.05D-01
 Use linear search instead of GDIIS.
     Eigenvalues ---    0.00424   0.00678   0.01865   0.02018   0.02137
     Eigenvalues ---    0.02246   0.02689   0.03020   0.03198   0.03427
     Eigenvalues ---    0.03446   0.03591   0.03808   0.04969   0.08375
     Eigenvalues ---    0.09165   0.09834   0.13454   0.14230   0.16000
     Eigenvalues ---    0.16104   0.18497   0.18888   0.19635   0.20391
     Eigenvalues ---    0.21347   0.23076   0.31090   0.33664   0.34891
     Eigenvalues ---    0.46780   0.47034   0.48932   0.54735   0.56301
     Eigenvalues ---    0.60452   0.81505   0.91015   0.951941000.00000
     Eigenvalues --- 1000.000001000.000001000.000001000.000001000.00000
     Eigenvalues --- 1000.000001000.000001000.000001000.000001000.00000
     Eigenvalues --- 1000.000001000.000001000.000001000.000001000.00000
     Eigenvalues --- 1000.000001000.000001000.000001000.000001000.00000
     Eigenvalues --- 1000.000001000.000001000.000001000.000001000.00000
     Eigenvalues --- 1000.000001000.000001000.000001000.000001000.00000
     Eigenvalues --- 1000.000001000.000001000.000001000.000001000.00000
     Eigenvalues --- 1000.000001000.00000
 RFO step:  Lambda=-2.60624513D-03 EMin= 4.23654399D-03
 Quartic linear search produced a step of  0.35324.
 Iteration  1 RMS(Cart)=  0.03682464 RMS(Int)=  0.00167942
 Iteration  2 RMS(Cart)=  0.00121583 RMS(Int)=  0.00098408
 Iteration  3 RMS(Cart)=  0.00000300 RMS(Int)=  0.00098408
 Iteration  4 RMS(Cart)=  0.00000001 RMS(Int)=  0.00098408
 Variable       Old X    -DE/DX   Delta X   Delta X   Delta X     New X
                                 (Linear)    (Quad)   (Total)
    R1        2.34835   0.00966   0.01455   0.00274   0.01732   2.36567
    R2        2.54921  -0.00913   0.00496  -0.02541  -0.02050   2.52871
    R3        2.06085  -0.00230  -0.00635  -0.00209  -0.00792   2.05293
    R4        5.74183   0.00220   0.01214   0.03714   0.04866   5.79048
    R5        3.12509   0.00060   0.00994   0.00220   0.01206   3.13715
    R6        5.70436   0.00092   0.01700   0.01225   0.02590   5.73026
    R7        4.37412  -0.00333  -0.01857  -0.10080  -0.11623   4.25789
    R8        1.90933   0.00187   0.01143  -0.00399   0.00750   1.91684
    R9        4.43056  -0.00105  -0.00669   0.00004  -0.00606   4.42450
   R10        3.13447   0.00142   0.01325   0.00954   0.02287   3.15734
   R11        2.33903   0.00737   0.01127   0.00165   0.01302   2.35205
   R12        2.55279  -0.00670   0.00622  -0.02066  -0.01439   2.53840
   R13        2.06267  -0.00107  -0.00571   0.00026  -0.00544   2.05723
   R14        1.90679   0.00166   0.01053  -0.00351   0.00696   1.91375
   R15        2.33710  -0.00287   0.01080  -0.01247  -0.00200   2.33511
   R16        2.54937   0.00693   0.01107   0.00727   0.01824   2.56761
   R17        2.05850   0.00098  -0.00003   0.00379   0.00376   2.06226
   R18        1.84947   0.00559   0.01871   0.00056   0.02278   1.87225
    A1        2.14721   0.00302   0.00061   0.02056   0.02121   2.16842
    A2        2.16774  -0.00347  -0.01101  -0.02426  -0.03569   2.13206
    A3        1.44093  -0.00102   0.00059  -0.00392  -0.00372   1.43722
    A4        1.96820   0.00045   0.01038   0.00373   0.01447   1.98267
    A5        2.68327  -0.00204  -0.00152  -0.01493  -0.01613   2.66715
    A6        2.41922  -0.00553  -0.01819  -0.03104  -0.04929   2.36993
    A7        2.01524   0.00058   0.00453   0.00576   0.01060   2.02584
    A8        2.15965   0.00247   0.01058   0.00849   0.01846   2.17811
    A9        1.80749   0.00459   0.01246   0.02488   0.03747   1.84497
   A10        1.70025   0.00302   0.00715   0.02078   0.02799   1.72824
   A11        1.94822   0.00286   0.02809   0.00267   0.03061   1.97884
   A12        2.91762   0.00044  -0.00785   0.00939   0.00154   2.91916
   A13        2.17531   0.00355   0.01054   0.01386   0.02452   2.19984
   A14        2.16085  -0.00286  -0.01345  -0.00929  -0.02279   2.13805
   A15        1.94703  -0.00069   0.00291  -0.00458  -0.00173   1.94530
   A16        2.39377  -0.00638  -0.02718  -0.02996  -0.05694   2.33684
   A17        1.93368   0.00315   0.02295   0.01084   0.03376   1.96744
   A18        2.91450  -0.00110  -0.00896   0.00370  -0.00545   2.90904
   A19        2.16806   0.00262   0.02157   0.00180   0.02218   2.19025
   A20        2.15331   0.00319   0.02350   0.00878   0.03276   2.18607
   A21        1.96163  -0.00580  -0.04514  -0.01010  -0.05475   1.90687
   A22        1.88163   0.00066  -0.00439   0.00568   0.00117   1.88280
   A23        2.14429   0.00005  -0.00470   0.00318  -0.00257   2.14172
   A24        1.60973  -0.00196  -0.00947   0.00482  -0.00396   1.60577
   A25        1.93514   0.00128   0.00028   0.00762   0.00513   1.94027
    D1       -0.00066   0.00019  -0.00042  -0.01055  -0.01084  -0.01151
    D2       -2.77470   0.00045   0.00103  -0.01602  -0.01635  -2.79105
    D3       -3.02109   0.00056   0.00635   0.01399   0.02245  -2.99865
    D4        3.13111  -0.00016  -0.00389  -0.00671  -0.01066   3.12046
    D5        0.35708   0.00010  -0.00244  -0.01218  -0.01617   0.34091
    D6        0.11069   0.00022   0.00288   0.01783   0.02263   0.13332
    D7        3.02962  -0.00035  -0.00216  -0.00505  -0.00672   3.02290
    D8        0.25559  -0.00008  -0.00071  -0.01052  -0.01223   0.24336
    D9        0.00920   0.00003   0.00461   0.01949   0.02657   0.03576
   D10       -0.00317  -0.00019  -0.00110   0.00807   0.00701   0.00384
   D11       -3.13596   0.00014   0.00201   0.00479   0.00710  -3.12885
   D12       -2.89318  -0.00006   0.00215  -0.01248  -0.01035  -2.90353
   D13       -0.68029   0.00093   0.01625   0.01760   0.03445  -0.64584
   D14        2.24924   0.00121   0.01363   0.03759   0.05170   2.30094
   D15        0.00776   0.00018   0.00247   0.00652   0.00906   0.01682
   D16        2.80909  -0.00036   0.00091   0.01039   0.01249   2.82158
   D17        3.04782  -0.00001  -0.00268  -0.01371  -0.01767   3.03015
   D18       -0.08167  -0.00097  -0.00530   0.00764   0.00406  -0.07760
   D19       -2.97636   0.00106   0.00154   0.01446   0.01664  -2.95972
   D20        0.00229   0.00005   0.00123   0.00029   0.00168   0.00397
   D21        0.00236   0.00005   0.00057  -0.00462  -0.00394  -0.00158
   D22       -0.00022   0.00002  -0.00027  -0.00108  -0.00135  -0.00158
   D23        3.14083   0.00001  -0.00046   0.00060   0.00006   3.14089
   D24       -0.00221  -0.00001  -0.00076   0.00243   0.00155  -0.00066
   D25        3.13987   0.00001  -0.00058   0.00094   0.00027   3.14015
   D26       -0.00308  -0.00024  -0.00066  -0.00298  -0.00372  -0.00680
   D27        0.84473  -0.00011  -0.01177  -0.01647  -0.02891   0.81582
   D28        1.04118  -0.00139  -0.02085  -0.02733  -0.04842   0.99276
   D29       -2.27435  -0.00074  -0.00382  -0.04514  -0.04940  -2.32375
   D30       -2.07790  -0.00201  -0.01290  -0.05599  -0.06892  -2.14682
   D31       -0.62023   0.00067   0.00862   0.00875   0.01744  -0.60279
   D32       -0.04547  -0.00188  -0.01606  -0.08383  -0.09986  -0.14533
   D33        2.50103   0.00133   0.00144   0.03484   0.03603   2.53706
   D34        3.07580  -0.00123  -0.02324  -0.05773  -0.08128   2.99452
         Item               Value     Threshold  Converged?
 Maximum Force            0.009663     0.000450     NO 
 RMS     Force            0.002902     0.000300     NO 
 Maximum Displacement     0.122597     0.001800     NO 
 RMS     Displacement     0.036963     0.001200     NO 
 Predicted change in Energy=-2.008782D-03
 GradGradGradGradGradGradGradGradGradGradGradGradGradGradGradGradGradGrad

                          Input orientation:                          
 ---------------------------------------------------------------------
 Center     Atomic      Atomic             Coordinates (Angstroms)
 Number     Number       Type             X           Y           Z
 ---------------------------------------------------------------------
      1          6           0        1.378161    1.279551   -0.008065
      2          8           0        1.503054    0.061133   -0.266933
      3          8           0        0.218060    1.867282    0.307129
      4          1           0        2.223976    1.961289   -0.012524
      5          1           0       -0.567349    1.225551    0.321774
      6          6           0       -1.452633   -1.291738   -0.000248
      7          8           0       -1.604176   -0.082882    0.254437
      8          8           0       -0.294186   -1.893580   -0.316695
      9          1           0       -2.279451   -1.999833    0.010075
     10          1           0        0.488636   -1.251314   -0.333196
     11          6           0        4.825433    0.147216    0.265613
     12          8           0        4.434829    1.217206   -0.213413
     13          8           0        4.301690   -1.076683   -0.006202
     14          1           0        5.646174    0.037662    0.976472
     15          1           0        3.471745   -0.999767   -0.541798
 ---------------------------------------------------------------------
                    Distance matrix (angstroms):
                    1          2          3          4          5
     1  C    0.000000
     2  O    1.251860   0.000000
     3  O    1.338137   2.289745   0.000000
     4  H    1.086365   2.048181   2.033400   0.000000
     5  H    1.974011   2.447246   1.014347   2.905952   0.000000
     6  C    3.824262   3.261512   3.586796   4.909153   2.687781
     7  O    3.289295   3.153957   2.669543   4.347947   1.670791
     8  O    3.600105   2.655833   3.846510   4.614507   3.195504
     9  H    4.912516   4.316440   4.613067   5.997654   3.664908
    10  H    2.702266   1.660106   3.195133   3.665386   2.771093
    11  C    3.638786   3.365891   4.918154   3.183677   5.499824
    12  O    3.064192   3.151932   4.298221   2.341343   5.030733
    13  O    3.754845   3.032321   5.043921   3.680518   5.395868
    14  H    4.552751   4.325743   5.767144   4.048443   6.359841
    15  H    3.140582   2.253177   4.418949   3.256518   4.691703
                    6          7          8          9         10
     6  C    0.000000
     7  O    1.244653   0.000000
     8  O    1.343262   2.306706   0.000000
     9  H    1.088639   2.047049   2.014782   0.000000
    10  H    1.970028   2.467875   1.012713   2.887978   0.000000
    11  C    6.446346   6.433734   5.542060   7.426607   4.595897
    12  O    6.403315   6.195053   5.661381   7.448546   4.656219
    13  O    5.758343   5.994566   4.678226   6.645591   3.831032
    14  H    7.287959   7.287211   6.378860   8.240197   5.475116
    15  H    4.962662   5.219161   3.877088   5.863527   3.000955
                   11         12         13         14         15
    11  C    0.000000
    12  O    1.235685   0.000000
    13  O    1.358720   2.307074   0.000000
    14  H    1.091301   2.067489   2.003760   0.000000
    15  H    1.949347   2.439331   0.990751   2.847726   0.000000
 Stoichiometry    C3H6O6
 Framework group  C1[X(C3H6O6)]
 Deg. of freedom    39
 Full point group                 C1      NOp   1
 Largest Abelian subgroup         C1      NOp   1
 Largest concise Abelian subgroup C1      NOp   1
                         Standard orientation:                         
 ---------------------------------------------------------------------
 Center     Atomic      Atomic             Coordinates (Angstroms)
 Number     Number       Type             X           Y           Z
 ---------------------------------------------------------------------
      1          6           0        0.094659    1.266441   -0.121188
      2          8           0        0.039492    0.024748   -0.270547
      3          8           0       -0.967024    2.043260    0.123745
      4          1           0        1.031575    1.813935   -0.172441
      5          1           0       -1.838328    1.527246    0.182559
      6          6           0       -3.083632   -0.851913    0.068603
      7          8           0       -3.056224    0.383887    0.214228
      8          8           0       -2.025659   -1.642505   -0.176369
      9          1           0       -4.005649   -1.427636    0.128291
     10          1           0       -1.156832   -1.125750   -0.237118
     11          6           0        3.337235   -0.329407    0.302764
     12          8           0        3.109326    0.739438   -0.273903
     13          8           0        2.639713   -1.482720    0.131149
     14          1           0        4.131403   -0.494363    1.032850
     15          1           0        1.831265   -1.333016   -0.421649
 ---------------------------------------------------------------------
 Rotational constants (GHZ):      2.4856171      0.6369845      0.5140957
 Standard basis: 6-31G (6D, 7F)
 There are    93 symmetry adapted basis functions of A   symmetry.
 Integral buffers will be    131072 words long.
 Raffenetti 2 integral format.
 Two-electron integral symmetry is turned on.
    93 basis functions,   222 primitive gaussians,    93 cartesian basis functions
    36 alpha electrons       36 beta electrons
       nuclear repulsion energy       437.3830533163 Hartrees.
 NAtoms=   15 NActive=   15 NUniq=   15 SFac= 7.50D-01 NAtFMM=   80 NAOKFM=F Big=F
 One-electron integrals computed using PRISM.
 NBasis=    93 RedAO= T  NBF=    93
 NBsUse=    93 1.00D-06 NBFU=    93
 Initial guess read from the read-write file.
 B after Tr=     0.000000    0.000000    0.000000
         Rot=    1.000000    0.000000    0.000000    0.000000 Ang=   0.00 deg.
 Initial guess orbital symmetries:
       Occupied  (A) (A) (A) (A) (A) (A) (A) (A) (A) (A) (A) (A)
                 (A) (A) (A) (A) (A) (A) (A) (A) (A) (A) (A) (A)
                 (A) (A) (A) (A) (A) (A) (A) (A) (A) (A) (A) (A)
       Virtual   (A) (A) (A) (A) (A) (A) (A) (A) (A) (A) (A) (A)
                 (A) (A) (A) (A) (A) (A) (A) (A) (A) (A) (A) (A)
                 (A) (A) (A) (A) (A) (A) (A) (A) (A) (A) (A) (A)
                 (A) (A) (A) (A) (A) (A) (A) (A) (A) (A) (A) (A)
                 (A) (A) (A) (A) (A) (A) (A) (A) (A)
 Harris functional with IExCor=  402 diagonalized for initial guess.
 ExpMin= 1.61D-01 ExpMax= 5.48D+03 ExpMxC= 8.25D+02 IAcc=1 IRadAn=         1 AccDes= 0.00D+00
 HarFok:  IExCor=  402 AccDes= 0.00D+00 IRadAn=         1 IDoV= 1
 ScaDFX=  1.000000  1.000000  1.000000  1.000000
 FoFCou: FMM=F IPFlag=           0 FMFlag=      100000 FMFlg1=           0
         NFxFlg=           0 DoJE=T BraDBF=F KetDBF=T FulRan=T
         Omega=  0.000000  0.000000  1.000000  0.000000  0.000000 ICntrl=     500 IOpCl=  0
         NMat0=    1 NMatS0=    1 NMatT0=    0 NMatD0=    1 NMtDS0=    0 NMtDT0=    0
         I1Cent=           4 NGrid=           0.
 Petite list used in FoFCou.
 Requested convergence on RMS density matrix=1.00D-08 within 128 cycles.
 Requested convergence on MAX density matrix=1.00D-06.
 Requested convergence on             energy=1.00D-06.
 No special actions if energy rises.
 Keep R1 ints in memory in canonical form, NReq=10641997.
 Integral accuracy reduced to 1.0D-05 until final iterations.
 Initial convergence to 1.0D-05 achieved.  Increase integral accuracy.
 SCF Done:  E(RB3LYP) =  -569.106413098     A.U. after   13 cycles
             Convg  =    0.9374D-08             -V/T =  2.0058
 Calling FoFJK, ICntrl=      2127 FMM=F ISym2X=0 I1Cent= 0 IOpClX= 0 NMat=1 NMatS=1 NMatT=0.
 ***** Axes restored to original set *****
 -------------------------------------------------------------------
 Center     Atomic                   Forces (Hartrees/Bohr)
 Number     Number              X              Y              Z
 -------------------------------------------------------------------
      1        6          -0.009361008    0.001713135    0.001996742
      2        8           0.006878829   -0.004998852   -0.002307446
      3        8           0.004236081   -0.002383977   -0.001188731
      4        1           0.001034427    0.000122434   -0.000821397
      5        1           0.002266018   -0.001229864   -0.000884481
      6        6           0.005533647   -0.002220732   -0.001496558
      7        8          -0.001833591    0.000908399    0.000580805
      8        8          -0.002858140    0.003308197    0.001101556
      9        1          -0.000989157   -0.000439841    0.000128884
     10        1          -0.003589233    0.002051824    0.000987855
     11        6           0.000030163    0.003511197   -0.002035965
     12        8           0.001757770   -0.003627191    0.004717040
     13        8          -0.005566612    0.000316014   -0.001798743
     14        1           0.001852123    0.001374491   -0.001235005
     15        1           0.000608683    0.001594767    0.002255444
 -------------------------------------------------------------------
 Cartesian Forces:  Max     0.009361008 RMS     0.002953159

 GradGradGradGradGradGradGradGradGradGradGradGradGradGradGradGradGradGrad
 Berny optimization.
 Using GEDIIS/GDIIS optimizer.
 Internal  Forces:  Max     0.006265094 RMS     0.001536610
 Search for a local minimum.
 Step number   3 out of a maximum of   87
 All quantities printed in internal units (Hartrees-Bohrs-Radians)
 Mixed Optimization -- RFO/linear search
 Update second derivatives using D2CorX and points    1    2    3
 DE= -2.72D-03 DEPred=-2.01D-03 R= 1.35D+00
 SS=  1.41D+00  RLast= 2.72D-01 DXNew= 8.4853D-01 8.1584D-01
 Trust test= 1.35D+00 RLast= 2.72D-01 DXMaxT set to 8.16D-01
 Use linear search instead of GDIIS.
     Eigenvalues ---    0.00427   0.00681   0.01745   0.01887   0.02125
     Eigenvalues ---    0.02188   0.02448   0.02987   0.03188   0.03268
     Eigenvalues ---    0.03423   0.03547   0.03783   0.04737   0.08415
     Eigenvalues ---    0.09140   0.09611   0.11854   0.13676   0.16002
     Eigenvalues ---    0.16962   0.18699   0.19649   0.19837   0.20809
     Eigenvalues ---    0.21379   0.24187   0.31208   0.33833   0.34883
     Eigenvalues ---    0.46876   0.47314   0.49038   0.54641   0.55943
     Eigenvalues ---    0.60954   0.81326   0.90875   1.015691000.00000
     Eigenvalues --- 1000.000001000.000001000.000001000.000001000.00000
     Eigenvalues --- 1000.000001000.000001000.000001000.000001000.00000
     Eigenvalues --- 1000.000001000.000001000.000001000.000001000.00000
     Eigenvalues --- 1000.000001000.000001000.000001000.000001000.00000
     Eigenvalues --- 1000.000001000.000001000.000001000.000001000.00000
     Eigenvalues --- 1000.000001000.000001000.000001000.000001000.00000
     Eigenvalues --- 1000.000001000.000001000.000001000.000001000.00000
     Eigenvalues --- 1000.000001000.00000
 RFO step:  Lambda=-1.09212977D-03 EMin= 4.27431539D-03
 Quartic linear search produced a step of  0.42200.
 Iteration  1 RMS(Cart)=  0.03229101 RMS(Int)=  0.00111992
 Iteration  2 RMS(Cart)=  0.00076865 RMS(Int)=  0.00085714
 Iteration  3 RMS(Cart)=  0.00000141 RMS(Int)=  0.00085714
 Iteration  4 RMS(Cart)=  0.00000001 RMS(Int)=  0.00085714
 Variable       Old X    -DE/DX   Delta X   Delta X   Delta X     New X
                                 (Linear)    (Quad)   (Total)
    R1        2.36567  -0.00007   0.00731   0.00152   0.00885   2.37452
    R2        2.52871  -0.00627  -0.00865  -0.00947  -0.01816   2.51055
    R3        2.05293   0.00091  -0.00334   0.00410   0.00113   2.05406
    R4        5.79048   0.00114   0.02053   0.00619   0.02635   5.81684
    R5        3.13715  -0.00026   0.00509  -0.00173   0.00333   3.14048
    R6        5.73026  -0.00156   0.01093  -0.04036  -0.03256   5.69769
    R7        4.25789  -0.00196  -0.04905  -0.08541  -0.13154   4.12635
    R8        1.91684  -0.00098   0.00317  -0.00088   0.00230   1.91914
    R9        4.42450  -0.00020  -0.00256  -0.00318  -0.00536   4.41914
   R10        3.15734  -0.00034   0.00965  -0.00665   0.00303   3.16037
   R11        2.35205  -0.00012   0.00549   0.00059   0.00613   2.35819
   R12        2.53840  -0.00476  -0.00607  -0.00691  -0.01295   2.52544
   R13        2.05723   0.00104  -0.00230   0.00342   0.00112   2.05835
   R14        1.91375  -0.00087   0.00294  -0.00041   0.00251   1.91626
   R15        2.33511  -0.00493  -0.00084  -0.00413  -0.00524   2.32987
   R16        2.56761   0.00199   0.00770   0.00462   0.01225   2.57986
   R17        2.06226   0.00045   0.00159   0.00103   0.00262   2.06488
   R18        1.87225  -0.00236   0.00961  -0.00360   0.00927   1.88152
    A1        2.16842   0.00071   0.00895   0.00234   0.01139   2.17981
    A2        2.13206  -0.00075  -0.01506  -0.00385  -0.01919   2.11287
    A3        1.43722  -0.00028  -0.00157  -0.00004  -0.00209   1.43513
    A4        1.98267   0.00004   0.00611   0.00151   0.00780   1.99047
    A5        2.66715  -0.00042  -0.00681  -0.00186  -0.00830   2.65884
    A6        2.36993  -0.00323  -0.02080  -0.02510  -0.04587   2.32406
    A7        2.02584  -0.00012   0.00447   0.00304   0.00797   2.03381
    A8        2.17811  -0.00053   0.00779  -0.00107   0.00569   2.18380
    A9        1.84497   0.00326   0.01581   0.02055   0.03622   1.88119
   A10        1.72824   0.00370   0.01181   0.02494   0.03708   1.76532
   A11        1.97884   0.00044   0.01292   0.01056   0.02334   2.00217
   A12        2.91916   0.00227   0.00065   0.01106   0.01165   2.93081
   A13        2.19984  -0.00051   0.01035  -0.00395   0.00645   2.20629
   A14        2.13805  -0.00008  -0.00962  -0.00141  -0.01106   2.12699
   A15        1.94530   0.00059  -0.00073   0.00536   0.00461   1.94990
   A16        2.33684  -0.00258  -0.02403  -0.01866  -0.04262   2.29422
   A17        1.96744   0.00122   0.01425   0.01380   0.02803   1.99547
   A18        2.90904   0.00168  -0.00230   0.00990   0.00750   2.91654
   A19        2.19025  -0.00086   0.00936  -0.00128   0.00697   2.19721
   A20        2.18607  -0.00127   0.01382  -0.01092   0.00341   2.18948
   A21        1.90687   0.00213  -0.02311   0.01220  -0.01039   1.89648
   A22        1.88280   0.00119   0.00049   0.00347   0.00365   1.88645
   A23        2.14172   0.00119  -0.00108   0.00563   0.00375   2.14548
   A24        1.60577   0.00078  -0.00167   0.01646   0.01513   1.62090
   A25        1.94027  -0.00011   0.00216  -0.00416  -0.00413   1.93614
    D1       -0.01151  -0.00005  -0.00457  -0.00568  -0.01007  -0.02157
    D2       -2.79105  -0.00043  -0.00690  -0.00478  -0.01269  -2.80373
    D3       -2.99865   0.00042   0.00947   0.00586   0.01701  -2.98163
    D4        3.12046  -0.00004  -0.00450  -0.00544  -0.00994   3.11052
    D5        0.34091  -0.00042  -0.00682  -0.00454  -0.01256   0.32835
    D6        0.13332   0.00043   0.00955   0.00610   0.01714   0.15045
    D7        3.02290  -0.00010  -0.00284  -0.00375  -0.00613   3.01678
    D8        0.24336  -0.00048  -0.00516  -0.00285  -0.00874   0.23461
    D9        0.03576   0.00037   0.01121   0.00779   0.02095   0.05671
   D10        0.00384  -0.00001   0.00296  -0.00018   0.00288   0.00672
   D11       -3.12885  -0.00002   0.00300  -0.00038   0.00289  -3.12596
   D12       -2.90353  -0.00011  -0.00437  -0.00532  -0.00956  -2.91309
   D13       -0.64584   0.00003   0.01454   0.01758   0.03285  -0.61299
   D14        2.30094   0.00020   0.02182   0.02214   0.04454   2.34548
   D15        0.01682   0.00016   0.00382   0.00862   0.01259   0.02941
   D16        2.82158   0.00018   0.00527   0.00628   0.01259   2.83417
   D17        3.03015  -0.00035  -0.00746  -0.00154  -0.01022   3.01993
   D18       -0.07760  -0.00023   0.00171  -0.00707  -0.00405  -0.08165
   D19       -2.95972   0.00062   0.00702   0.00194   0.00931  -2.95042
   D20        0.00397   0.00006   0.00071   0.00497   0.00591   0.00988
   D21       -0.00158   0.00001  -0.00166  -0.00143  -0.00297  -0.00455
   D22       -0.00158   0.00002  -0.00057   0.00065   0.00001  -0.00157
   D23        3.14089  -0.00007   0.00003  -0.00264  -0.00275   3.13813
   D24       -0.00066  -0.00008   0.00065  -0.00380  -0.00337  -0.00402
   D25        3.14015   0.00000   0.00012  -0.00081  -0.00085   3.13930
   D26       -0.00680  -0.00004  -0.00157  -0.00015  -0.00184  -0.00865
   D27        0.81582  -0.00129  -0.01220  -0.03728  -0.04972   0.76610
   D28        0.99276  -0.00123  -0.02043  -0.04210  -0.06263   0.93012
   D29       -2.32375  -0.00133  -0.02085  -0.03619  -0.05729  -2.38104
   D30       -2.14682  -0.00128  -0.02908  -0.04101  -0.07020  -2.21702
   D31       -0.60279   0.00105   0.00736   0.02741   0.03486  -0.56793
   D32       -0.14533  -0.00027  -0.04214  -0.00334  -0.04526  -0.19058
   D33        2.53706   0.00108   0.01520   0.02645   0.04138   2.57844
   D34        2.99452  -0.00024  -0.03430  -0.00430  -0.03874   2.95578
         Item               Value     Threshold  Converged?
 Maximum Force            0.006265     0.000450     NO 
 RMS     Force            0.001537     0.000300     NO 
 Maximum Displacement     0.111152     0.001800     NO 
 RMS     Displacement     0.032162     0.001200     NO 
 Predicted change in Energy=-8.421191D-04
 GradGradGradGradGradGradGradGradGradGradGradGradGradGradGradGradGradGrad

                          Input orientation:                          
 ---------------------------------------------------------------------
 Center     Atomic      Atomic             Coordinates (Angstroms)
 Number     Number       Type             X           Y           Z
 ---------------------------------------------------------------------
      1          6           0        1.379307    1.258454   -0.006393
      2          8           0        1.527914    0.038808   -0.269602
      3          8           0        0.221067    1.835334    0.294733
      4          1           0        2.227260    1.938481   -0.001626
      5          1           0       -0.576081    1.206231    0.307226
      6          6           0       -1.478390   -1.284724   -0.005991
      7          8           0       -1.649794   -0.074480    0.245372
      8          8           0       -0.318010   -1.876075   -0.305665
      9          1           0       -2.303451   -1.995825    0.000192
     10          1           0        0.478192   -1.248392   -0.324517
     11          6           0        4.855541    0.164224    0.257683
     12          8           0        4.452267    1.242302   -0.184120
     13          8           0        4.323203   -1.062615   -0.016644
     14          1           0        5.704993    0.033791    0.932503
     15          1           0        3.449946   -0.974420   -0.486728
 ---------------------------------------------------------------------
                    Distance matrix (angstroms):
                    1          2          3          4          5
     1  C    0.000000
     2  O    1.256543   0.000000
     3  O    1.328528   2.292123   0.000000
     4  H    1.086961   2.041974   2.030586   0.000000
     5  H    1.981068   2.474349   1.015565   2.913813   0.000000
     6  C    3.825466   3.295314   3.565578   4.911305   2.667793
     7  O    3.318969   3.221158   2.673938   4.375451   1.672395
     8  O    3.577111   2.659984   3.798110   4.595833   3.153228
     9  H    4.914579   4.346479   4.597578   6.000510   3.651196
    10  H    2.682814   1.661871   3.155780   3.649611   2.745134
    11  C    3.653940   3.371477   4.926696   3.181680   5.530891
    12  O    3.078137   3.163470   4.299307   2.338509   5.052426
    13  O    3.748865   3.015088   5.032155   3.660571   5.408839
    14  H    4.592699   4.346616   5.807388   4.073704   6.420084
    15  H    3.082854   2.183570   4.350983   3.196135   4.646988
                    6          7          8          9         10
     6  C    0.000000
     7  O    1.247899   0.000000
     8  O    1.336407   2.307170   0.000000
     9  H    1.089233   2.044247   2.012428   0.000000
    10  H    1.982673   2.496230   1.014041   2.898557   0.000000
    11  C    6.502896   6.509725   5.589796   7.482198   4.636338
    12  O    6.449053   6.257277   5.700403   7.493942   4.692179
    13  O    5.805853   6.059847   4.720817   6.692063   3.861788
    14  H    7.363440   7.387609   6.438728   8.314068   5.526622
    15  H    4.961441   5.230029   3.878564   5.863611   2.988761
                   11         12         13         14         15
    11  C    0.000000
    12  O    1.232912   0.000000
    13  O    1.365201   2.314595   0.000000
    14  H    1.092687   2.068011   2.003080   0.000000
    15  H    1.956107   2.451546   0.995658   2.848850   0.000000
 Stoichiometry    C3H6O6
 Framework group  C1[X(C3H6O6)]
 Deg. of freedom    39
 Full point group                 C1      NOp   1
 Largest Abelian subgroup         C1      NOp   1
 Largest concise Abelian subgroup C1      NOp   1
                         Standard orientation:                         
 ---------------------------------------------------------------------
 Center     Atomic      Atomic             Coordinates (Angstroms)
 Number     Number       Type             X           Y           Z
 ---------------------------------------------------------------------
      1          6           0        0.093785    1.244306   -0.117634
      2          8           0        0.060128   -0.002441   -0.270574
      3          8           0       -0.966350    2.010290    0.115540
      4          1           0        1.033175    1.789430   -0.160870
      5          1           0       -1.847959    1.509365    0.172198
      6          6           0       -3.109348   -0.839009    0.066568
      7          8           0       -3.099622    0.400786    0.208219
      8          8           0       -2.049244   -1.619436   -0.163858
      9          1           0       -4.030713   -1.417147    0.123758
     10          1           0       -1.168776   -1.120335   -0.226739
     11          6           0        3.369210   -0.323139    0.289774
     12          8           0        3.130520    0.759034   -0.250597
     13          8           0        2.661075   -1.477455    0.116943
     14          1           0        4.189468   -0.516970    0.985166
     15          1           0        1.810870   -1.303506   -0.371144
 ---------------------------------------------------------------------
 Rotational constants (GHZ):      2.5455366      0.6257344      0.5085218
 Standard basis: 6-31G (6D, 7F)
 There are    93 symmetry adapted basis functions of A   symmetry.
 Integral buffers will be    131072 words long.
 Raffenetti 2 integral format.
 Two-electron integral symmetry is turned on.
    93 basis functions,   222 primitive gaussians,    93 cartesian basis functions
    36 alpha electrons       36 beta electrons
       nuclear repulsion energy       436.7121985884 Hartrees.
 NAtoms=   15 NActive=   15 NUniq=   15 SFac= 7.50D-01 NAtFMM=   80 NAOKFM=F Big=F
 One-electron integrals computed using PRISM.
 NBasis=    93 RedAO= T  NBF=    93
 NBsUse=    93 1.00D-06 NBFU=    93
 Initial guess read from the read-write file.
 B after Tr=     0.000000    0.000000    0.000000
         Rot=    1.000000    0.000000    0.000000    0.000000 Ang=   0.00 deg.
 Initial guess orbital symmetries:
       Occupied  (A) (A) (A) (A) (A) (A) (A) (A) (A) (A) (A) (A)
                 (A) (A) (A) (A) (A) (A) (A) (A) (A) (A) (A) (A)
                 (A) (A) (A) (A) (A) (A) (A) (A) (A) (A) (A) (A)
       Virtual   (A) (A) (A) (A) (A) (A) (A) (A) (A) (A) (A) (A)
                 (A) (A) (A) (A) (A) (A) (A) (A) (A) (A) (A) (A)
                 (A) (A) (A) (A) (A) (A) (A) (A) (A) (A) (A) (A)
                 (A) (A) (A) (A) (A) (A) (A) (A) (A) (A) (A) (A)
                 (A) (A) (A) (A) (A) (A) (A) (A) (A)
 Harris functional with IExCor=  402 diagonalized for initial guess.
 ExpMin= 1.61D-01 ExpMax= 5.48D+03 ExpMxC= 8.25D+02 IAcc=1 IRadAn=         1 AccDes= 0.00D+00
 HarFok:  IExCor=  402 AccDes= 0.00D+00 IRadAn=         1 IDoV= 1
 ScaDFX=  1.000000  1.000000  1.000000  1.000000
 FoFCou: FMM=F IPFlag=           0 FMFlag=      100000 FMFlg1=           0
         NFxFlg=           0 DoJE=T BraDBF=F KetDBF=T FulRan=T
         Omega=  0.000000  0.000000  1.000000  0.000000  0.000000 ICntrl=     500 IOpCl=  0
         NMat0=    1 NMatS0=    1 NMatT0=    0 NMatD0=    1 NMtDS0=    0 NMtDT0=    0
         I1Cent=           4 NGrid=           0.
 Petite list used in FoFCou.
 Requested convergence on RMS density matrix=1.00D-08 within 128 cycles.
 Requested convergence on MAX density matrix=1.00D-06.
 Requested convergence on             energy=1.00D-06.
 No special actions if energy rises.
 Keep R1 ints in memory in canonical form, NReq=10641997.
 Integral accuracy reduced to 1.0D-05 until final iterations.
 Initial convergence to 1.0D-05 achieved.  Increase integral accuracy.
 SCF Done:  E(RB3LYP) =  -569.107669151     A.U. after   13 cycles
             Convg  =    0.3903D-08             -V/T =  2.0058
 Calling FoFJK, ICntrl=      2127 FMM=F ISym2X=0 I1Cent= 0 IOpClX= 0 NMat=1 NMatS=1 NMatT=0.
[...]
 ! R10   R(5,7)                  1.5865         -DE/DX =    0.0                 !
 ! R11   R(6,7)                  1.2498         -DE/DX =    0.0                 !
 ! R12   R(6,8)                  1.3312         -DE/DX =    0.0                 !
 ! R13   R(6,9)                  1.0891         -DE/DX =    0.0                 !
 ! R14   R(8,10)                 1.0167         -DE/DX =    0.0                 !
 ! R15   R(11,12)                1.2386         -DE/DX =    0.0                 !
 ! R16   R(11,13)                1.3492         -DE/DX =    0.0                 !
 ! R17   R(11,14)                1.0916         -DE/DX =    0.0                 !
 ! R18   R(13,15)                1.0053         -DE/DX =    0.0                 !
 ! A1    A(2,1,3)              124.5073         -DE/DX =    0.0                 !
 ! A2    A(2,1,4)              120.3097         -DE/DX =    0.0                 !
 ! A3    A(2,1,12)              88.602          -DE/DX =    0.0                 !
 ! A4    A(3,1,4)              115.183          -DE/DX =    0.0                 !
 ! A5    A(3,1,12)             146.8905         -DE/DX =    0.0                 !
 ! A6    A(1,2,10)             126.4471         -DE/DX =    0.0                 !
 ! A7    A(1,2,13)             112.4866         -DE/DX =    0.0                 !
 ! A8    A(1,2,15)             115.6007         -DE/DX =    0.0                 !
 ! A9    A(10,2,13)            121.0662         -DE/DX =    0.0                 !
 ! A10   A(10,2,15)            117.9521         -DE/DX =    0.0                 !
 ! A11   A(1,3,5)              115.6005         -DE/DX =    0.0                 !
 ! A12   A(3,5,7)              173.9212         -DE/DX =    0.0                 !
 ! A13   A(7,6,8)              125.7614         -DE/DX =    0.0                 !
 ! A14   A(7,6,9)              121.8888         -DE/DX =    0.0                 !
 ! A15   A(8,6,9)              112.3498         -DE/DX =    0.0                 !
 ! A16   A(5,7,6)              126.8294         -DE/DX =    0.0                 !
 ! A17   A(6,8,10)             114.0982         -DE/DX =    0.0                 !
 ! A18   A(2,10,8)             172.8301         -DE/DX =    0.0                 !
 ! A19   A(12,11,13)           125.4788         -DE/DX =    0.0                 !
 ! A20   A(12,11,14)           123.7404         -DE/DX =    0.0                 !
 ! A21   A(13,11,14)           110.7809         -DE/DX =    0.0                 !
 ! A22   A(1,12,11)            106.152          -DE/DX =    0.0                 !
 ! A23   A(4,12,11)            121.1262         -DE/DX =    0.0                 !
 ! A24   A(2,13,11)            107.2806         -DE/DX =    0.0                 !
 ! A25   A(11,13,15)           112.6379         -DE/DX =    0.0                 !
 ! D1    D(3,1,2,10)            -0.0138         -DE/DX =    0.0                 !
 ! D2    D(3,1,2,13)          -179.9287         -DE/DX =    0.0                 !
 ! D3    D(3,1,2,15)          -179.9389         -DE/DX =    0.0                 !
 ! D4    D(4,1,2,10)           179.9737         -DE/DX =    0.0                 !
 ! D5    D(4,1,2,13)             0.0588         -DE/DX =    0.0                 !
 ! D6    D(4,1,2,15)             0.0486         -DE/DX =    0.0                 !
 ! D7    D(12,1,2,10)          179.8983         -DE/DX =    0.0                 !
 ! D8    D(12,1,2,13)           -0.0166         -DE/DX =    0.0                 !
 ! D9    D(12,1,2,15)           -0.0268         -DE/DX =    0.0                 !
 ! D10   D(2,1,3,5)              0.0307         -DE/DX =    0.0                 !
 ! D11   D(4,1,3,5)           -179.9574         -DE/DX =    0.0                 !
 ! D12   D(12,1,3,5)          -179.8084         -DE/DX =    0.0                 !
 ! D13   D(2,1,12,11)            0.014          -DE/DX =    0.0                 !
 ! D14   D(3,1,12,11)          179.8814         -DE/DX =    0.0                 !
 ! D15   D(1,2,10,8)            -1.8514         -DE/DX =    0.0                 !
 ! D16   D(13,2,10,8)          178.0568         -DE/DX =    0.0                 !
 ! D17   D(15,2,10,8)          178.0721         -DE/DX =    0.0                 !
 ! D18   D(1,2,13,11)            0.0306         -DE/DX =    0.0                 !
 ! D19   D(10,2,13,11)        -179.8895         -DE/DX =    0.0                 !
 ! D20   D(1,3,5,7)              0.965          -DE/DX =    0.0                 !
 ! D21   D(3,5,7,6)             -0.9116         -DE/DX =    0.0                 !
 ! D22   D(8,6,7,5)             -0.1383         -DE/DX =    0.0                 !
 ! D23   D(9,6,7,5)            179.8592         -DE/DX =    0.0                 !
 ! D24   D(7,6,8,10)            -0.0001         -DE/DX =    0.0                 !
 ! D25   D(9,6,8,10)          -179.9977         -DE/DX =    0.0                 !
 ! D26   D(6,8,10,2)             1.8475         -DE/DX =    0.0                 !
 ! D27   D(13,11,12,1)           0.0093         -DE/DX =    0.0                 !
 ! D28   D(13,11,12,4)          -0.0323         -DE/DX =    0.0                 !
 ! D29   D(14,11,12,1)        -179.9913         -DE/DX =    0.0                 !
 ! D30   D(14,11,12,4)         179.9671         -DE/DX =    0.0                 !
 ! D31   D(12,11,13,2)          -0.0186         -DE/DX =    0.0                 !
 ! D32   D(12,11,13,15)         -0.0045         -DE/DX =    0.0                 !
 ! D33   D(14,11,13,2)         179.982          -DE/DX =    0.0                 !
 ! D34   D(14,11,13,15)        179.996          -DE/DX =    0.0                 !
 --------------------------------------------------------------------------------
 GradGradGradGradGradGradGradGradGradGradGradGradGradGradGradGradGradGrad

                          Input orientation:                          
 ---------------------------------------------------------------------
 Center     Atomic      Atomic             Coordinates (Angstroms)
 Number     Number       Type             X           Y           Z
 ---------------------------------------------------------------------
      1          6           0        1.440684    1.091968    0.109473
      2          8           0        1.598094   -0.161992    0.020021
      3          8           0        0.271360    1.697479    0.130786
      4          1           0        2.305362    1.751266    0.175671
      5          1           0       -0.547935    1.082141    0.069445
      6          6           0       -1.569379   -1.236913   -0.115874
      7          8           0       -1.705986    0.002366   -0.029830
      8          8           0       -0.410715   -1.891855   -0.143283
      9          1           0       -2.425540   -1.907184   -0.177833
     10          1           0        0.407341   -1.290773   -0.086848
     11          6           0        4.953757    0.246287    0.122242
     12          8           0        4.492031    1.393114    0.197499
     13          8           0        4.226456   -0.885703    0.022324
     14          1           0        6.021818    0.021091    0.128633
     15          1           0        3.236616   -0.710200    0.013997
 ---------------------------------------------------------------------
                    Distance matrix (angstroms):
                    1          2          3          4          5
     1  C    0.000000
     2  O    1.266964   0.000000
     3  O    1.316972   2.286947   0.000000
     4  H    1.089368   2.045730   2.035208   0.000000
     5  H    1.989046   2.481079   1.026473   2.932630   0.000000
     6  C    3.812472   3.347657   3.472724   4.901818   2.540807
     7  O    3.332892   3.308541   2.609425   4.380844   1.586458
     8  O    3.520620   2.656014   3.663831   4.555342   2.984751
     9  H    4.901545   4.390271   4.512439   5.990881   3.538730
    10  H    2.604572   1.644220   2.999251   3.595191   2.562753
    11  C    3.613450   3.381954   4.902130   3.046607   5.565075
    12  O    3.067435   3.290094   4.232157   2.215913   5.051174
    13  O    3.417500   2.726178   4.725186   3.266148   5.164247
    14  H    4.704671   4.428842   5.989829   4.099727   6.655147
    15  H    2.546036   1.727808   3.821427   2.636700   4.187886
                    6          7          8          9         10
     6  C    0.000000
     7  O    1.249751   0.000000
     8  O    1.331240   2.297536   0.000000
     9  H    1.089089   2.045982   2.015179   0.000000
    10  H    1.977666   2.478227   1.016711   2.900596   0.000000
    11  C    6.693869   6.665943   5.780979   7.692952   4.803766
    12  O    6.614826   6.356199   5.911351   7.673697   4.895793
    13  O    5.808111   5.998771   4.747961   6.732945   3.842088
    14  H    7.698611   7.729451   6.716456   8.670065   5.769729
    15  H    4.836515   4.993895   3.837196   5.790473   2.889988
                   11         12         13         14         15
    11  C    0.000000
    12  O    1.238575   0.000000
    13  O    1.349204   2.300918   0.000000
    14  H    1.091562   2.056074   2.014175   0.000000
    15  H    1.968542   2.456353   1.005313   2.881888   0.000000
 Stoichiometry    C3H6O6
 Framework group  C1[X(C3H6O6)]
 Deg. of freedom    39
 Full point group                 C1      NOp   1
 Largest Abelian subgroup         C1      NOp   1
 Largest concise Abelian subgroup C1      NOp   1
                         Standard orientation:                         
 ---------------------------------------------------------------------
 Center     Atomic      Atomic             Coordinates (Angstroms)
 Number     Number       Type             X           Y           Z
 ---------------------------------------------------------------------
      1          6           0        0.166421    1.071292   -0.001879
      2          8           0        0.096688   -0.193750   -0.003321
      3          8           0       -0.876125    1.875974   -0.001076
      4          1           0        1.135718    1.568471   -0.001008
      5          1           0       -1.792850    1.414168   -0.001201
      6          6           0       -3.213638   -0.692261    0.002622
      7          8           0       -3.126147    0.554423    0.001313
      8          8           0       -2.190516   -1.543973   -0.000462
      9          1           0       -4.176359   -1.201445    0.006603
     10          1           0       -1.277691   -1.096271   -0.004171
     11          6           0        3.473197   -0.385499    0.001714
     12          8           0        3.224171    0.827783    0.002872
     13          8           0        2.554383   -1.373487   -0.001266
     14          1           0        4.484262   -0.796905    0.002995
     15          1           0        1.611417   -1.024963   -0.002442
 ---------------------------------------------------------------------
 Rotational constants (GHZ):      2.9514997      0.6075771      0.5038570

 **********************************************************************

            Population analysis using the SCF density.

 **********************************************************************

 Orbital symmetries:
       Occupied  (A) (A) (A) (A) (A) (A) (A) (A) (A) (A) (A) (A)
                 (A) (A) (A) (A) (A) (A) (A) (A) (A) (A) (A) (A)
                 (A) (A) (A) (A) (A) (A) (A) (A) (A) (A) (A) (A)
       Virtual   (A) (A) (A) (A) (A) (A) (A) (A) (A) (A) (A) (A)
                 (A) (A) (A) (A) (A) (A) (A) (A) (A) (A) (A) (A)
                 (A) (A) (A) (A) (A) (A) (A) (A) (A) (A) (A) (A)
                 (A) (A) (A) (A) (A) (A) (A) (A) (A) (A) (A) (A)
                 (A) (A) (A) (A) (A) (A) (A) (A) (A)
 The electronic state is 1-A.
 Alpha  occ. eigenvalues --  -19.22264 -19.21926 -19.20578 -19.19501 -19.18981
 Alpha  occ. eigenvalues --  -19.15725 -10.37064 -10.36989 -10.33419  -1.15892
 Alpha  occ. eigenvalues --   -1.14573  -1.11497  -1.07217  -1.05775  -1.03004
 Alpha  occ. eigenvalues --   -0.71387  -0.68210  -0.66745  -0.59190  -0.55233
 Alpha  occ. eigenvalues --   -0.53834  -0.52239  -0.50797  -0.48374  -0.47801
 Alpha  occ. eigenvalues --   -0.47448  -0.44336  -0.43704  -0.39836  -0.37726
 Alpha  occ. eigenvalues --   -0.36284  -0.35000  -0.33863  -0.32471  -0.32010
 Alpha  occ. eigenvalues --   -0.28943
 Alpha virt. eigenvalues --   -0.05556  -0.04722  -0.01511   0.09121   0.11088
 Alpha virt. eigenvalues --    0.12560   0.13090   0.16122   0.17654   0.23387
 Alpha virt. eigenvalues --    0.24519   0.26007   0.26252   0.30687   0.35095
 Alpha virt. eigenvalues --    0.47360   0.49131   0.50109   0.51963   0.52968
 Alpha virt. eigenvalues --    0.56258   0.58960   0.62986   0.65319   0.69332
 Alpha virt. eigenvalues --    0.72239   0.73833   0.76978   0.79180   0.80514
 Alpha virt. eigenvalues --    0.83859   0.84924   0.85681   0.87692   0.88024
 Alpha virt. eigenvalues --    0.90411   0.94195   0.96582   0.99363   1.00581
 Alpha virt. eigenvalues --    1.02748   1.04610   1.12871   1.15480   1.16929
 Alpha virt. eigenvalues --    1.24812   1.25548   1.28193   1.29495   1.39007
 Alpha virt. eigenvalues --    1.50049   1.61757   1.65357   1.69456   1.74887
 Alpha virt. eigenvalues --    1.86980   1.93088
          Condensed to atoms (all electrons):
              1          2          3          4          5          6
     1  C    4.711515   0.311224   0.241924   0.353856  -0.016131   0.001590
     2  O    0.311224   8.297166  -0.084758  -0.062178   0.003461   0.001679
     3  O    0.241924  -0.084758   8.268601  -0.057890   0.189150   0.001798
     4  H    0.353856  -0.062178  -0.057890   0.492931   0.002589   0.000018
     5  H   -0.016131   0.003461   0.189150   0.002589   0.300875  -0.008243
     6  C    0.001590   0.001679   0.001798   0.000018  -0.008243   4.644415
     7  O    0.002320  -0.001230  -0.040357  -0.000048   0.091981   0.374266
     8  O    0.001130  -0.033084   0.000306  -0.000059  -0.000785   0.227839
     9  H    0.000018  -0.000070  -0.000086   0.000000   0.001040   0.379589
    10  H   -0.005637   0.078551  -0.000936   0.000768   0.002223  -0.016933
    11  C    0.001865   0.000503   0.000008  -0.001808   0.000001   0.000000
    12  O   -0.008682  -0.000818   0.000116   0.032228   0.000000   0.000000
    13  O   -0.000391  -0.023060  -0.000013   0.000264   0.000002   0.000000
    14  H   -0.000026  -0.000062   0.000000   0.000332   0.000000   0.000000
    15  H   -0.001739   0.058296   0.000390   0.000058  -0.000005  -0.000004
              7          8          9         10         11         12
     1  C    0.002320   0.001130   0.000018  -0.005637   0.001865  -0.008682
     2  O   -0.001230  -0.033084  -0.000070   0.078551   0.000503  -0.000818
     3  O   -0.040357   0.000306  -0.000086  -0.000936   0.000008   0.000116
     4  H   -0.000048  -0.000059   0.000000   0.000768  -0.001808   0.032228
     5  H    0.091981  -0.000785   0.001040   0.002223   0.000001   0.000000
     6  C    0.374266   0.227839   0.379589  -0.016933   0.000000   0.000000
     7  O    8.187071  -0.085874  -0.062469   0.003278   0.000000   0.000000
     8  O   -0.085874   8.298865  -0.079795   0.198383   0.000000   0.000000
     9  H   -0.062469  -0.079795   0.570318   0.003718   0.000000   0.000000
    10  H    0.003278   0.198383   0.003718   0.304279  -0.000016  -0.000003
    11  C    0.000000   0.000000   0.000000  -0.000016   4.672779   0.433427
    12  O    0.000000   0.000000   0.000000  -0.000003   0.433427   8.119921
    13  O    0.000000  -0.000002   0.000000   0.000006   0.188014  -0.090766
    14  H    0.000000   0.000000   0.000000   0.000000   0.365871  -0.062860
    15  H    0.000003  -0.000010   0.000000   0.000545  -0.016317   0.003729
             13         14         15
     1  C   -0.000391  -0.000026  -0.001739
     2  O   -0.023060  -0.000062   0.058296
     3  O   -0.000013   0.000000   0.000390
     4  H    0.000264   0.000332   0.000058
     5  H    0.000002   0.000000  -0.000005
     6  C    0.000000   0.000000  -0.000004
     7  O    0.000000   0.000000   0.000003
     8  O   -0.000002   0.000000  -0.000010
     9  H    0.000000   0.000000   0.000000
    10  H    0.000006   0.000000   0.000545
    11  C    0.188014   0.365871  -0.016317
    12  O   -0.090766  -0.062860   0.003729
    13  O    8.356726  -0.090859   0.211217
    14  H   -0.090859   0.621828   0.004960
    15  H    0.211217   0.004960   0.311644
 Mulliken atomic charges:
              1
     1  C    0.407163
     2  O   -0.545619
     3  O   -0.518253
     4  H    0.238940
     5  H    0.433845
     6  C    0.393984
     7  O   -0.468942
     8  O   -0.526916
     9  H    0.187735
    10  H    0.431773
    11  C    0.355674
    12  O   -0.426293
    13  O   -0.551138
    14  H    0.160814
    15  H    0.427232
 Sum of Mulliken atomic charges =   0.00000
 Mulliken charges with hydrogens summed into heavy atoms:
              1
     1  C    0.646103
     2  O   -0.545619
     3  O   -0.084408
     6  C    0.581719
     7  O   -0.468942
     8  O   -0.095142
    11  C    0.516488
    12  O   -0.426293
    13  O   -0.123906
 Sum of Mulliken charges with hydrogens summed into heavy atoms =   0.00000
 Electronic spatial extent (au):  <R**2>=           2007.2876
 Charge=              0.0000 electrons
 Dipole moment (field-independent basis, Debye):
    X=             -1.5861    Y=             -1.0275    Z=             -0.0022  Tot=              1.8899
 Quadrupole moment (field-independent basis, Debye-Ang):
   XX=            -47.2947   YY=            -61.5508   ZZ=            -50.4099
   XY=              1.8659   XZ=             -0.0123   YZ=             -0.0187
 Traceless Quadrupole moment (field-independent basis, Debye-Ang):
   XX=              5.7904   YY=             -8.4656   ZZ=              2.6752
   XY=              1.8659   XZ=             -0.0123   YZ=             -0.0187
 Octapole moment (field-independent basis, Debye-Ang**2):
  XXX=            -12.5842  YYY=              3.6713  ZZZ=             -0.0084  XYY=             -5.2539
  XXY=            -37.5232  XXZ=              0.0614  XZZ=             -1.0594  YZZ=              0.5215
  YYZ=             -0.0097  XYZ=             -0.0091
 Hexadecapole moment (field-independent basis, Debye-Ang**3):
 XXXX=          -1697.7014 YYYY=           -470.5455 ZZZZ=            -38.7167 XXXY=             11.3383
 XXXZ=             -0.2330 YYYX=              5.1408 YYYZ=              0.0024 ZZZX=              0.0105
 ZZZY=              0.0086 XXYY=           -444.5428 XXZZ=           -326.3610 YYZZ=            -76.5997
 XXYZ=             -0.2857 YYXZ=             -0.0207 ZZXY=             -0.2912
 N-N= 4.403964436398D+02 E-N=-2.218884347522D+03  KE= 5.658874915878D+02
 1\1\GINC-LSQC07\FOpt\RB3LYP\6-31G\C3H6O6\LITAO\09-May-2015\0\\#opt b3l
 yp/6-31g\\Title Card Required\\0,1\C,1.4406839135,1.0919684378,0.10947
 30513\O,1.598094499,-0.1619921356,0.0200214056\O,0.2713598279,1.697478
 8624,0.1307861415\H,2.3053617213,1.7512660196,0.1756714444\H,-0.547935
 4583,1.0821413568,0.0694449536\C,-1.5693785674,-1.2369125202,-0.115873
 8896\O,-1.7059857797,0.0023662184,-0.0298300059\O,-0.4107154463,-1.891
 8550102,-0.1432827979\H,-2.4255403581,-1.9071835442,-0.1778327033\H,0.
 4073410168,-1.2907728283,-0.0868480809\C,4.9537569563,0.2462867817,0.1
 22242066\O,4.4920307027,1.3931142119,0.1974989121\O,4.2264563867,-0.88
 57029748,0.022323772\H,6.0218177014,0.0210910499,0.1286327417\H,3.2366
 158841,-0.7102000251,0.0139969995\\Version=EM64L-G09RevA.01\State=1-A\
 HF=-569.1160062\RMSD=5.085e-09\RMSF=2.382e-05\Dipole=-0.5416261,-0.507
 0552,-0.0486283\Quadrupole=3.4785977,-5.4356474,1.9570497,3.1516017,0.
 2525371,-0.4917296\PG=C01 [X(C3H6O6)]\\@


 JUST WHEN YOU THINK YOU'VE GOT THE WORLD ON A STRING,
 YOU FIND OUT IT'S YOUR LEASH.
 Job cpu time:  0 days  0 hours  9 minutes 32.2 seconds.
 File lengths (MBytes):  RWF=      9 Int=      0 D2E=      0 Chk=      2 Scr=      1
 Normal termination of Gaussian 09 at Sat May  9 09:51:53 2015.
