35
  This energy is -0.00484094 and Call times are: 1851
C	0.38856	-1.479	-2.06969
O	-0.101448	-0.373417	-1.68032
O	-0.314911	-2.52062	-2.43199
H	1.46793	-1.60907	-2.13
H	-1.34459	-2.43287	-2.34394
C	-3.38334	-1.16539	-1.7311
O	-2.85906	-2.19124	-2.21518
O	-2.74191	-0.0621198	-1.3569
H	-4.45974	-1.08679	-1.58599
H	-1.73424	-0.118376	-1.44053
C	2.88645	1.00376	-1.14724
O	3.16354	-0.0969833	-1.62067
O	1.61749	1.43114	-0.886061
H	3.62118	1.76612	-0.880706
H	0.893957	0.747975	-1.12977
C	0.931245	4.2383	1.14374
O	1.05109	3.50182	2.13687
O	1.03276	3.87831	-0.135488
H	0.728356	5.30586	1.23827
H	1.2231	2.90288	-0.33273
C	0.442523	0.128161	2.64058
O	-0.0671945	0.202798	1.49743
O	1.071	1.12569	3.24845
H	0.409031	-0.78586	3.23376
H	1.08664	2.0034	2.74658
C	-1.16886	-2.9598	1.50875
O	-0.627834	-2.86971	2.61704
O	-1.25957	-1.9591	0.603336
H	-1.63781	-3.87193	1.13237
H	-0.831546	-1.09216	0.931075
C	6.42491	0.0884323	0.426985
O	6.67182	-1.05997	0.0953346
O	5.84941	0.934643	-0.426388
H	6.67832	0.423964	1.43193
H	5.68445	0.512169	-1.2619
