35
  This energy is -0.00141172 and Call times are: 1818
C	1.14046	-1.98761	-1.17081
O	1.14084	-0.720911	-1.07331
O	0.687116	-2.65667	-2.19937
H	1.54609	-2.59925	-0.36648
H	0.259145	-2.09604	-2.95978
C	-0.443729	0.063692	-3.94979
O	-0.318609	-1.17564	-4.04958
O	0.00413271	0.816362	-2.94901
H	-0.939696	0.652717	-4.71982
H	0.43437	0.293647	-2.19587
C	2.49041	-0.745846	1.97404
O	2.47763	-1.93522	1.66138
O	1.98535	0.258032	1.20056
H	2.90591	-0.354505	2.90478
H	1.5918	-0.0647026	0.311425
C	1.36527	3.50136	2.45257
O	0.279406	3.08425	2.88845
O	2.26834	2.80771	1.76001
H	1.69591	4.52811	2.6146
H	2.0572	1.83778	1.55689
C	-1.8919	0.614627	1.79662
O	-1.13647	0.602361	0.795952
O	-1.68473	1.34523	2.88422
H	-2.79631	0.00831377	1.85006
H	-0.87703	1.95294	2.85568
C	-3.00664	-1.59713	-0.901259
O	-3.64719	-1.46773	0.148542
O	-1.86	-0.944378	-1.19881
H	-3.29942	-2.26481	-1.71491
H	-1.56445	-0.309821	-0.455707
C	6.48603	-0.0315576	-0.444232
O	5.31892	0.239566	-0.211553
O	7.35653	-0.202133	0.550072
H	6.81833	-0.134931	-1.47651
H	6.93401	-0.0834064	1.39337
