18
  This energy is -2.2305 and Call times are: 4383
C	-0.200532	-0.445952	1.02338
C	-0.264353	-1.18549	-0.120899
C	0.0457176	-0.285575	-1.18585
C	0.271647	0.924447	-0.598336
O	0.125567	0.844862	0.750493
H	-0.363535	-0.717349	2.07933
H	-0.505582	-2.25721	-0.206459
H	0.092697	-0.52083	-2.26128
H	0.540077	1.90519	-1.02417
C	3.40047	-0.233407	1.14922
C	3.38041	-1.14498	0.114918
N	3.52074	-0.527622	-1.08329
C	3.62745	0.762035	-0.793418
N	3.56083	0.990837	0.53955
H	3.31484	-0.364873	2.2396
H	3.2672	-2.23706	0.21178
H	3.75597	1.58145	-1.51886
H	3.62006	1.92319	1.01753
