18
  This energy is -0.6934 and Call times are: 175174
C	0.732803	0.859077	0.106713
C	-0.584244	0.976632	0.44129
C	-1.17163	-0.296849	0.170466
C	-0.16167	-1.08019	-0.3057
O	1.00843	-0.390413	-0.351344
H	1.56479	1.58114	0.147631
H	-1.09126	1.87046	0.838913
H	-2.22462	-0.586715	0.316359
H	-0.14697	-2.13005	-0.641608
C	5.72745	-0.368483	-1.05381
C	4.95993	0.189386	-0.0533888
N	5.71609	0.498139	1.028
C	6.94802	0.1332	0.699695
N	7.00704	-0.394953	-0.545761
H	5.46245	-0.73625	-2.05783
H	3.87411	0.374633	-0.0925014
H	7.84399	0.230248	1.33376
H	7.86425	-0.755847	-1.03178
