18
  This energy is -1.2883 and Call times are: 67758
C	-0.351825	0.968154	0.474655
C	-1.15481	-0.129725	0.373446
C	-0.367562	-1.1318	-0.271685
C	0.84701	-0.557816	-0.507755
O	0.874331	0.724519	-0.0584438
H	-0.532472	1.96945	0.898938
H	-2.19697	-0.224417	0.718474
H	-0.67797	-2.15792	-0.526302
H	1.76175	-0.950806	-0.981108
C	5.26426	0.0808021	-0.968156
C	4.88217	-1.07513	-0.320872
N	4.11766	-0.798189	0.76326
C	4.02582	0.524518	0.788446
N	4.7002	1.10065	-0.234721
H	5.87719	0.244374	-1.86876
H	5.14443	-2.10399	-0.616698
H	3.47723	1.12256	1.53385
H	4.77846	2.12842	-0.431757
