18
  This energy is -0.9666 and Call times are: 40407
C	0.184502	-1.05695	-0.36771
C	-1.00179	-0.412553	-0.562238
C	-0.848818	0.876509	0.0336135
C	0.417445	0.906041	0.539657
O	1.06284	-0.266459	0.303599
H	0.524263	-2.06561	-0.654793
H	-1.89497	-0.805539	-1.07399
H	-1.59981	1.6817	0.0757047
H	0.970048	1.69098	1.08164
C	5.12863	-0.579492	-0.987746
C	6.39134	-0.347015	-0.485083
N	6.33467	0.353563	0.673575
C	5.04173	0.55494	0.888894
N	4.27339	0.0115326	-0.0847348
H	4.78945	-1.10612	-1.89392
H	7.34225	-0.672238	-0.937693
H	4.60276	1.09395	1.74388
H	3.22577	0.0358143	-0.141003
