18
  This energy is -0.6381 and Call times are: 114925
C	-0.834303	-0.345824	0.686109
C	0.468326	-0.697788	0.88524
C	1.20636	-0.0779077	-0.168883
C	0.289577	0.598135	-0.919119
O	-0.961803	0.445498	-0.411418
H	-1.75152	-0.590055	1.24675
H	0.869268	-1.33046	1.69336
H	2.29329	-0.134406	-0.340559
H	0.399258	1.21641	-1.82519
C	6.5559	0.803738	-0.555783
C	5.47397	0.120149	-1.0689
N	4.95404	-0.73111	-0.151545
C	5.71054	-0.576208	0.926575
N	6.69025	0.338323	0.733219
H	7.21766	1.56313	-1.00181
H	5.05922	0.225924	-2.0846
H	5.59108	-1.1074	1.88459
H	7.41425	0.636106	1.43208
