18
  This energy is -1.1984 and Call times are: 191562
C	0.897593	0.548337	0.424328
C	0.187039	1.02323	-0.638668
C	-0.850179	0.0696323	-0.873061
C	-0.681892	-0.903815	0.0673927
O	0.380854	-0.627655	0.868216
H	1.77907	0.948268	0.951875
H	0.374499	1.9519	-1.20129
H	-1.62681	0.11193	-1.65355
H	-1.2436	-1.83073	0.268804
C	5.33963	-0.609146	0.777758
C	5.21996	0.762155	0.69803
N	4.40102	1.12282	-0.319697
C	4.01411	-0.0203867	-0.869249
N	4.55293	-1.09349	-0.243373
H	5.90992	-1.25314	1.46593
H	5.70985	1.49776	1.35662
H	3.33712	-0.129039	-1.73186
H	4.40046	-2.10225	-0.489155
