18
  This energy is -1.1659 and Call times are: 207572
C	0.608621	-0.280507	0.915039
C	0.255325	1.00778	0.639591
C	-0.493204	0.956598	-0.575811
C	-0.531246	-0.358448	-0.935785
O	0.136618	-1.12818	-0.0366298
H	1.18673	-0.718512	1.74522
H	0.49753	1.9042	1.23278
H	-0.946752	1.80544	-1.11233
H	-0.994645	-0.867668	-1.79672
C	6.03303	-0.178587	-0.263516
C	5.48449	-0.0645384	0.996339
N	4.14605	0.137225	0.93008
C	3.86533	0.148304	-0.365952
N	4.96968	-0.0380477	-1.12706
H	7.07024	-0.344284	-0.595591
H	6.03049	-0.124222	1.95194
H	2.86777	0.289007	-0.812396
H	5.00847	-0.069483	-2.17528
