18
  This energy is -0.767 and Call times are: 178351
C	-0.495274	0.971513	0.311877
C	-0.482179	-0.131902	1.11355
C	0.22354	-1.13685	0.384055
C	0.579402	-0.558826	-0.799004
O	0.148542	0.728667	-0.860104
H	-0.923886	1.97655	0.458314
H	-0.925055	-0.228469	2.11786
H	0.436625	-2.1675	0.7103
H	1.13273	-0.95207	-1.66759
C	4.45255	0.0759972	-0.250366
C	5.04647	0.275198	0.977934
N	6.38914	0.106734	0.90454
C	6.62726	-0.195828	-0.364466
N	5.49177	-0.226857	-1.10154
H	3.39906	0.126633	-0.568382
H	4.53023	0.537459	1.91579
H	7.61451	-0.404144	-0.807395
H	5.41724	-0.440848	-2.12619
