18
  This energy is -1.1119 and Call times are: 44667
C	-0.349585	-0.201918	-1.05992
C	-0.125236	1.05971	-0.592642
C	0.297171	0.905196	0.763019
C	0.29366	-0.437208	1.0045
O	-0.0987451	-1.12848	-0.0978504
H	-0.684908	-0.568164	-2.04413
H	-0.245171	2.00438	-1.147
H	0.56986	1.70625	1.46874
H	0.546075	-1.01844	1.90655
C	3.79999	0.298329	-0.293386
C	4.50272	0.716707	0.816691
N	5.74541	0.17663	0.840481
C	5.81334	-0.573943	-0.250687
N	4.6654	-0.533819	-0.967767
H	2.77936	0.526274	-0.639628
H	4.13534	1.39858	1.60086
H	6.67986	-1.17383	-0.572422
H	4.47155	-1.04015	-1.86627
