18
  This energy is -0.4769 and Call times are: 100248
C	1.08264	0.0987287	-0.323332
C	0.707082	0.119597	0.987734
C	-0.713456	-0.0293463	0.989954
C	-1.08057	-0.128085	-0.319952
O	0.00366008	-0.0518333	-1.13583
H	2.07245	0.180589	-0.801698
H	1.36444	0.228911	1.86524
H	-1.37648	-0.0584744	1.86953
H	-2.0673	-0.253464	-0.79523
C	6.56573	1.10023	-0.416435
C	5.48997	0.323385	-0.0417295
N	5.89469	-0.894882	0.392484
C	7.21649	-0.873899	0.287552
N	7.66958	0.307218	-0.195427
H	6.622	2.127	-0.81154
H	4.42905	0.62012	-0.0769118
H	7.9012	-1.69627	0.550479
H	8.67096	0.568999	-0.36855
