18
  This energy is -1.3648 and Call times are: 188200
C	0.21761	-1.02843	-0.425878
C	-0.686217	-0.829007	0.57597
C	-0.680161	0.575786	0.83411
C	0.226833	1.1108	-0.0327794
O	0.784738	0.14543	-0.809837
H	0.542831	-1.9447	-0.945438
H	-1.29601	-1.59437	1.0824
H	-1.28433	1.11617	1.58048
H	0.560481	2.14917	-0.193162
C	3.6286	-0.645036	0.457909
C	4.64243	-1.08871	-0.364548
N	5.47443	-0.0746708	-0.705151
C	4.97863	0.994028	-0.0963099
N	3.86566	0.701999	0.61756
H	2.7834	-1.17487	0.925294
H	4.78848	-2.12234	-0.718283
H	5.39114	2.01491	-0.139493
H	3.29253	1.37373	1.18462
