44
  This energy is 0.1439 and Call times are: 72065
C	-1.09678	0.827712	-3.1976
C	-1.33177	0.631534	-1.74935
O	-2.37079	1.00227	-1.22075
H	-1.9717	1.34799	-3.64449
H	-0.966742	-0.153536	-3.70058
H	-0.18967	1.44793	-3.35754
N	-0.352779	0.0355786	-1.06467
C	-0.417782	-0.185451	0.358524
C	0.998826	-0.191487	0.901424
O	1.9648	-0.1895	0.140768
H	0.50406	-0.223619	-1.50115
H	-0.938495	0.641499	0.825047
C	-1.12568	-1.52045	0.677727
H	-0.585898	-2.37023	0.208101
H	-1.19436	-1.6955	1.77096
H	-2.15762	-1.49667	0.264326
N	1.1555	-0.190492	2.23989
C	2.46582	-0.190531	2.84755
H	0.361753	-0.187943	2.83907
H	2.38484	-0.189278	3.95691
H	3.04271	0.710679	2.53725
H	3.0422	-1.09256	2.53889
C	3.62919	0.152322	2.9308
C	4.6862	-0.452591	2.0894
O	5.47071	-1.27069	2.54948
H	3.71134	-0.245014	3.96581
H	2.62656	-0.10144	2.52696
H	3.74753	1.25607	2.95916
N	4.73156	-0.0542462	0.815957
C	5.73008	-0.521262	-0.113234
C	5.95576	0.563338	-1.14971
O	5.2219	1.54852	-1.20038
H	4.11205	0.64292	0.466631
H	6.66631	-0.665973	0.411326
C	5.2811	-1.83387	-0.791991
H	4.32606	-1.68327	-1.33905
H	6.0476	-2.21107	-1.4996
H	5.11419	-2.61077	-0.0142325
N	6.98944	0.409762	-2.00056
C	7.28466	1.393	-3.01656
H	7.57458	-0.392218	-1.94134
H	8.17123	1.08673	-3.61441
H	7.49913	2.3836	-2.55396
H	6.42008	1.51503	-3.70847
