44
  This energy is 0.1008 and Call times are: 10199
C	-1.73374	2.19858	2.06714
C	-1.12819	0.877433	1.78605
O	-0.994639	0.0415443	2.66915
H	-1.99347	2.26146	3.14624
H	-2.65816	2.33142	1.46667
H	-1.01484	3.00886	1.82275
N	-0.740043	0.658174	0.52762
C	-0.095633	-0.562227	0.110586
C	0.805238	-0.242715	-1.0675
O	0.767364	0.860904	-1.60816
H	-0.817942	1.36352	-0.171151
H	0.536956	-0.923932	0.911605
C	-1.13927	-1.6315	-0.280188
H	-1.78169	-1.26498	-1.10904
H	-0.655753	-2.58059	-0.589965
H	-1.79236	-1.84375	0.594329
N	1.64814	-1.20583	-1.48936
C	2.54653	-0.990879	-2.5997
H	1.66718	-2.09108	-1.03654
H	3.15765	-1.89999	-2.79279
H	3.23725	-0.142826	-2.38759
H	1.97623	-0.748371	-3.52549
C	8.57561	-0.644928	1.13677
C	7.35964	0.196937	1.07482
O	7.2054	1.14307	1.83473
H	9.23581	-0.277153	1.95209
H	9.12792	-0.590835	0.175117
H	8.30021	-1.70017	1.34579
N	6.45324	-0.136606	0.153105
C	5.20104	0.561501	0.000810162
C	4.18017	-0.413911	-0.554145
O	4.522	-1.52773	-0.946911
H	6.57438	-0.934235	-0.430822
H	4.84819	0.878672	0.974218
C	5.35731	1.77577	-0.940666
H	5.70919	1.44974	-1.94263
H	4.40308	2.32973	-1.05509
H	6.11469	2.47208	-0.518918
N	2.89267	-0.0177093	-0.591432
C	1.85072	-0.88032	-1.09779
H	2.63495	0.885782	-0.265314
H	0.861374	-0.374693	-1.04511
H	1.79576	-1.82078	-0.502982
H	2.04858	-1.15432	-2.15936
