44
  This energy is -2.8201 and Call times are: 10085
C	0.168901	-2.40279	-2.51212
C	-0.304248	-1.10525	-1.97953
O	-0.848451	-0.283955	-2.7046
H	-0.0404124	-2.45039	-3.6029
H	-0.359557	-3.23903	-2.00795
H	1.26272	-2.50653	-2.35125
N	-0.101272	-0.888488	-0.677918
C	-0.467786	0.343549	-0.0249918
C	0.471932	0.555469	1.147
O	1.24973	-0.329477	1.4986
H	0.379826	-1.54961	-0.109302
H	-0.319867	1.16879	-0.710359
C	-1.93396	0.296935	0.458119
H	-2.08377	-0.543102	1.16941
H	-2.23248	1.24517	0.950324
H	-2.60296	0.133154	-0.414784
N	0.426916	1.74576	1.77726
C	1.28758	2.04001	2.89925
H	-0.206271	2.45084	1.47559
H	1.10059	3.06855	3.27919
H	2.3589	1.96532	2.60267
H	1.10869	1.32083	3.73106
C	3.87134	-2.09401	-0.0832192
C	4.78386	-1.11382	-0.713859
O	4.73539	-0.885335	-1.91463
H	3.21721	-2.54132	-0.862885
H	3.23473	-1.59145	0.675003
H	4.45592	-2.90329	0.403007
N	5.65244	-0.504735	0.0966739
C	6.63166	0.441287	-0.377364
C	7.82884	0.389108	0.553023
O	7.78253	-0.24758	1.60383
H	5.70735	-0.731349	1.06491
H	6.97323	0.139862	-1.35976
C	6.0431	1.86844	-0.422928
H	5.70218	2.18219	0.586711
H	6.7832	2.60396	-0.799487
H	5.16372	1.88121	-1.10327
N	8.93928	1.0559	0.181123
C	10.1291	1.05874	0.999934
H	8.95895	1.56205	-0.674741
H	10.9329	1.66215	0.523486
H	10.5087	0.0213455	1.14475
H	9.91427	1.49104	2.00398
