44
  This energy is -0.1602 and Call times are: 10001
C	-2.50653	0.507131	-2.36068
C	-1.12733	0.120982	-1.98675
O	-0.380002	-0.416446	-2.79241
H	-2.69677	0.213733	-3.41596
H	-2.63587	1.60563	-2.26419
H	-3.2395	-0.0100654	-1.70619
N	-0.755155	0.389416	-0.733032
C	0.540542	0.0341378	-0.210054
C	0.402559	-0.188856	1.2842
O	-0.639645	0.0978223	1.87015
H	-1.38832	0.790046	-0.0769316
H	0.857673	-0.903963	-0.648262
C	1.57517	1.14386	-0.498655
H	1.25549	2.10396	-0.0403525
H	2.58019	0.875991	-0.113023
H	1.65386	1.29552	-1.59736
N	1.45611	-0.717375	1.93744
C	1.41478	-0.970189	3.35891
H	2.2894	-0.946627	1.44536
H	2.37628	-1.40637	3.70888
H	0.595482	-1.68313	3.60739
H	1.23281	-0.0256796	3.92098
C	8.18544	1.61815	-2.9795
C	7.57869	1.59546	-1.6295
O	7.20023	2.62511	-1.08822
H	8.23293	2.66758	-3.34323
H	7.57102	1.02061	-3.68532
H	9.21489	1.20341	-2.94338
N	7.47351	0.399192	-1.04617
C	6.94413	0.222462	0.283143
C	7.58574	-1.01233	0.887462
O	8.2784	-1.76179	0.201721
H	7.82348	-0.424843	-1.48245
H	7.23002	1.06764	0.896784
C	5.40735	0.0727822	0.249586
H	5.11395	-0.800449	-0.371245
H	4.98629	-0.0500814	1.26848
H	4.95966	0.984111	-0.203622
N	7.37521	-1.24889	2.19732
C	7.94982	-2.39637	2.86011
H	6.81515	-0.628762	2.73663
H	7.66157	-2.41529	3.93425
H	9.06181	-2.37093	2.79605
H	7.59822	-3.34113	2.38582
