44
  This energy is -0.446 and Call times are: 4315
C	2.91129	-1.84455	-0.484445
C	1.64862	-1.24925	-0.976791
O	1.39219	-1.20783	-2.17217
H	3.51674	-2.1899	-1.3505
H	2.69439	-2.71352	0.171741
H	3.49457	-1.0893	0.0834228
N	0.819532	-0.764976	-0.0491715
C	-0.42626	-0.117498	-0.376789
C	-0.741316	0.883727	0.718584
O	-0.0767189	0.915986	1.7525
H	1.06066	-0.769041	0.917115
H	-0.308136	0.438974	-1.29821
C	-1.5665	-1.15058	-0.510406
H	-1.69509	-1.71446	0.438033
H	-2.52821	-0.665791	-0.776142
H	-1.31094	-1.87763	-1.31193
N	-1.76497	1.73541	0.511684
C	-2.13459	2.72619	1.49551
H	-2.28843	1.69667	-0.33304
H	-2.99899	3.32952	1.14051
H	-1.28381	3.417	1.69609
H	-2.41781	2.23916	2.45662
C	9.73619	1.90883	-1.86241
C	8.43472	1.2248	-1.69081
O	7.5155	1.40668	-2.47717
H	9.68976	2.56764	-2.75665
H	10.5448	1.162	-2.00784
H	9.96279	2.52965	-0.970057
N	8.32654	0.410387	-0.638477
C	7.10905	-0.291226	-0.315947
C	7.07325	-0.511166	1.18469
O	8.05511	-0.261611	1.88138
H	9.06994	0.304199	0.0156902
H	6.26007	0.330632	-0.571164
C	7.03571	-1.64099	-1.06294
H	7.90091	-2.2835	-0.793386
H	6.0963	-2.18454	-0.833625
H	7.07146	-1.45637	-2.15883
N	5.92892	-0.979122	1.72093
C	5.79994	-1.21411	3.14019
H	5.14381	-1.17127	1.14149
H	4.78492	-1.59781	3.38464
H	5.96518	-0.271671	3.71098
H	6.55014	-1.96229	3.48451
