44
  This energy is -1.7776 and Call times are: 9668
C	-3.02511	1.70699	0.218198
C	-1.80448	1.30715	-0.517566
O	-1.68877	1.52258	-1.71615
H	-3.74251	2.17755	-0.488757
H	-2.77039	2.43971	1.01254
H	-3.50437	0.816495	0.676913
N	-0.851953	0.703313	0.196889
C	0.373539	0.218434	-0.387594
C	0.858163	-0.958381	0.438119
O	0.321706	-1.24063	1.50782
H	-0.977793	0.498171	1.1633
H	0.172129	-0.149231	-1.38604
C	1.4444	1.33065	-0.42581
H	1.65905	1.70086	0.599329
H	2.38828	0.973616	-0.886388
H	1.0652	2.18466	-1.0285
N	1.88628	-1.68174	-0.0474181
C	2.41149	-2.82243	0.666143
H	2.30467	-1.44033	-0.916755
H	3.25346	-3.28397	0.104637
H	1.62087	-3.59425	0.809281
H	2.78436	-2.51964	1.67134
C	8.13277	2.46391	-2.2067
C	7.07772	1.80644	-1.4031
O	5.98463	2.3316	-1.24258
H	7.75727	3.44334	-2.5749
H	8.40015	1.8307	-3.07865
H	9.03618	2.63631	-1.58444
N	7.38893	0.622755	-0.869791
C	6.48179	-0.117459	-0.0285251
C	7.30455	-0.958243	0.929448
O	8.5226	-1.05695	0.794039
H	8.2968	0.227185	-0.975379
H	5.90128	0.57562	0.567519
C	5.55209	-1.01448	-0.874841
H	6.14674	-1.73278	-1.47857
H	4.83951	-1.57922	-0.239375
H	4.9657	-0.379043	-1.57391
N	6.65394	-1.58091	1.93194
C	7.35448	-2.39799	2.89517
H	5.66861	-1.48573	2.02754
H	6.64583	-2.82289	3.63983
H	8.11669	-1.79573	3.44069
H	7.87827	-3.24078	2.38871
