44
  This energy is -2.388 and Call times are: 6252
C	-3.02252	1.55358	0.750617
C	-1.56836	1.5954	0.477092
O	-0.991777	2.65592	0.278991
H	-3.43194	2.58668	0.719622
H	-3.21051	1.12255	1.75641
H	-3.53878	0.93927	-0.0169662
N	-0.934117	0.420776	0.457836
C	0.471744	0.297177	0.163149
C	0.706373	-1.06611	-0.4597
O	-0.188059	-1.90936	-0.484911
H	-1.4246	-0.437294	0.580357
H	0.748951	1.04056	-0.573854
C	1.32022	0.460949	1.44319
H	1.04355	-0.30806	2.1956
H	2.40538	0.381616	1.22721
H	1.12659	1.46224	1.88623
N	1.92167	-1.31151	-0.987773
C	2.23517	-2.5784	-1.60655
H	2.63127	-0.615197	-0.961489
H	3.28287	-2.58507	-1.98005
H	1.55509	-2.77421	-2.46703
H	2.11752	-3.41201	-0.876889
C	4.28169	-1.18326	2.72147
C	5.47971	-1.19069	1.85208
O	6.48994	-1.80201	2.17165
H	4.48965	-1.77634	3.63845
H	3.41928	-1.636	2.18854
H	4.02909	-0.142821	3.01603
N	5.39195	-0.496978	0.714779
C	6.48931	-0.37527	-0.212334
C	6.3451	0.945224	-0.945186
O	5.32724	1.62435	-0.824934
H	4.5773	0.0290828	0.487901
H	7.42046	-0.338081	0.339196
C	6.49918	-1.55163	-1.21299
H	5.54834	-1.58388	-1.7865
H	7.34772	-1.47671	-1.92355
H	6.59749	-2.50792	-0.65425
N	7.37214	1.34551	-1.72041
C	7.32702	2.59045	-2.45134
H	8.18914	0.784315	-1.8019
H	8.26542	2.74149	-3.02913
H	7.20221	3.45075	-1.7545
H	6.4711	2.59679	-3.16443
