44
  This energy is 0.5999 and Call times are: 4287
C	0.973591	0.300404	3.32785
C	0.991798	-0.397571	2.02261
O	1.78762	-1.299	1.79789
H	1.77067	-0.118768	3.97965
H	-0.00902917	0.157454	3.8246
H	1.16054	1.38553	3.18418
N	0.100329	0.0130346	1.11759
C	0.0252957	-0.540448	-0.211542
C	-0.515501	0.530529	-1.14004
O	-0.958289	1.58677	-0.692825
H	-0.513576	0.775523	1.30089
H	1.02284	-0.788769	-0.551935
C	-0.882739	-1.78944	-0.23859
H	-1.90904	-1.53298	0.100499
H	-0.937587	-2.233	-1.25386
H	-0.472385	-2.55658	0.453843
N	-0.483828	0.283983	-2.46451
C	-0.971568	1.24668	-3.42447
H	-0.117993	-0.574846	-2.80751
H	-0.85957	0.859633	-4.46123
H	-0.405346	2.20283	-3.34425
H	-2.04899	1.46756	-3.24693
C	7.8246	1.94641	2.83708
C	7.79631	1.76469	1.3683
O	7.88182	2.72108	0.610386
H	7.91163	3.02961	3.07154
H	8.69615	1.41343	3.27191
H	6.88898	1.55491	3.28919
N	7.67111	0.510639	0.927773
C	7.58549	0.179881	-0.472878
C	6.7774	-1.09687	-0.60883
O	6.46289	-1.75176	0.383088
H	7.56144	-0.253302	1.55724
H	7.0442	0.961033	-0.991949
C	8.99224	-0.00203012	-1.08378
H	9.54406	-0.81047	-0.558467
H	8.94013	-0.243394	-2.16524
H	9.56836	0.941652	-0.965935
N	6.41342	-1.47739	-1.84929
C	5.63875	-2.67521	-2.07571
H	6.67386	-0.932182	-2.63923
H	5.44047	-2.81601	-3.16111
H	4.66064	-2.61649	-1.5455
H	6.18226	-3.57185	-1.69917
