44
  This energy is -1.5258 and Call times are: 7638
C	2.59818	-0.652052	2.22192
C	1.48467	-1.09466	1.35282
O	1.31837	-2.27782	1.09034
H	3.19557	-1.53664	2.5326
H	2.19974	-0.150914	3.12903
H	3.2575	0.0512583	1.67079
N	0.685633	-0.136399	0.877806
C	-0.413714	-0.407554	-0.0146473
C	-0.633783	0.818776	-0.880234
O	-0.0429516	1.87079	-0.643801
H	0.858164	0.826024	1.06713
H	-0.145717	-1.2238	-0.673854
C	-1.69536	-0.748911	0.77661
H	-1.97666	0.0923933	1.44528
H	-2.54562	-0.973268	0.100407
H	-1.50879	-1.64436	1.40883
N	-1.48925	0.708004	-1.91558
C	-1.75733	1.82043	-2.79696
H	-1.95476	-0.152675	-2.09335
H	-2.48657	1.53069	-3.5853
H	-0.82075	2.162	-3.29438
H	-2.17919	2.68014	-2.22769
C	4.00189	-0.803612	-2.95816
C	4.67205	-1.18513	-1.69464
O	4.62014	-2.33181	-1.27176
H	3.48148	-1.69067	-3.38026
H	4.75031	-0.442017	-3.69427
H	3.25421	-0.00477065	-2.76869
N	5.32549	-0.213875	-1.05271
C	5.98981	-0.421875	0.209822
C	5.9887	0.892702	0.967092
O	5.62605	1.93331	0.421812
H	5.32436	0.723768	-1.38838
H	5.4241	-1.13353	0.798162
C	7.43511	-0.922828	-0.00320707
H	8.01893	-0.188192	-0.597782
H	7.95271	-1.09999	0.961793
H	7.41204	-1.88148	-0.566043
N	6.38963	0.87358	2.25352
C	6.41662	2.075	3.05479
H	6.67555	0.0210999	2.67849
H	6.77497	1.85321	4.08417
H	5.39865	2.52204	3.12681
H	7.09568	2.83375	2.60279
