44
  This energy is -1.7138 and Call times are: 2993
C	1.39849	2.89315	-1.33663
C	1.49933	1.63084	-0.570114
O	2.58643	1.16636	-0.25566
H	2.42026	3.27257	-1.5555
H	0.850428	3.65691	-0.745826
H	0.86745	2.71702	-2.29583
N	0.347109	1.03753	-0.249589
C	0.285212	-0.217725	0.456863
C	-0.992108	-0.927468	0.0490968
O	-1.84363	-0.352962	-0.626604
H	-0.528546	1.40636	-0.548016
H	1.11404	-0.84257	0.148257
C	0.315817	0.00690748	1.98456
H	-0.540239	0.639164	2.30308
H	0.28267	-0.952976	2.53958
H	1.25523	0.534593	2.25916
N	-1.15157	-2.20527	0.446372
C	-2.33213	-2.96244	0.101189
H	-0.449614	-2.65443	0.989131
H	-2.27559	-3.9915	0.519592
H	-2.43991	-3.03933	-1.00504
H	-3.24667	-2.46981	0.503748
C	6.56845	2.21621	2.63294
C	6.69802	0.879852	2.00963
O	7.41862	0.0206093	2.49836
H	7.21672	2.26528	3.53471
H	5.51585	2.39633	2.93679
H	6.8867	3.00427	1.91827
N	5.99181	0.673648	0.895571
C	6.04815	-0.560546	0.152507
C	5.75974	-0.249291	-1.30403
O	5.37138	0.866437	-1.64467
H	5.44157	1.39639	0.487239
H	7.05223	-0.962818	0.2037
C	5.0271	-1.58153	0.700492
H	3.99575	-1.17347	0.638448
H	5.07039	-2.54101	0.145463
H	5.25244	-1.78826	1.76952
N	5.95267	-1.23372	-2.20387
C	5.70958	-1.02831	-3.61273
H	6.27123	-2.12868	-1.90953
H	5.92607	-1.95512	-4.18838
H	6.35591	-0.211333	-4.00781
H	4.64706	-0.744725	-3.79101
