44
  This energy is 0.1513 and Call times are: 6339
C	-1.74189	1.38765	-2.6745
C	-0.938137	0.304936	-2.06388
O	-0.811321	-0.778524	-2.61745
H	-2.17327	1.0284	-3.63404
H	-1.10171	2.2719	-2.877
H	-2.57029	1.67915	-1.99488
N	-0.370024	0.578946	-0.887211
C	0.405575	-0.387694	-0.150588
C	0.290571	-0.0600118	1.32622
O	-0.24153	0.983396	1.70023
H	-0.5161	1.4514	-0.429655
H	-0.0196531	-1.37285	-0.296475
C	1.88393	-0.364428	-0.59687
H	2.32365	0.643197	-0.437592
H	2.48882	-1.11406	-0.0466991
H	1.94341	-0.59902	-1.68213
N	0.783136	-0.95467	2.20542
C	0.713665	-0.730891	3.63065
H	1.20641	-1.79516	1.88374
H	1.17148	-1.57975	4.18478
H	-0.345359	-0.62729	3.96081
H	1.25487	0.202301	3.90883
C	2.20381	-0.0318683	-0.485282
C	3.575	0.340113	-0.900766
O	3.79889	0.786357	-2.01752
H	1.50298	0.147036	-1.32949
H	1.88635	0.584276	0.382089
H	2.16612	-1.10661	-0.20854
N	4.53917	0.158972	0.00474089
C	5.9279	0.434344	-0.267562
C	6.77062	-0.483836	0.597509
O	6.25406	-1.16851	1.47847
H	4.34745	-0.243544	0.895291
H	6.14415	0.192425	-1.30068
C	6.26465	1.91308	0.0243096
H	6.05291	2.15899	1.08673
H	7.32795	2.14105	-0.194674
H	5.63077	2.5667	-0.613896
N	8.09619	-0.525515	0.3585
C	8.97662	-1.37386	1.12749
H	8.49514	0.0327591	-0.361391
H	10.0278	-1.26754	0.779867
H	8.68012	-2.44294	1.02529
H	8.93566	-1.10603	2.20811
