44
  This energy is -0.857 and Call times are: 9855
C	-3.10695	-0.572446	-1.46009
C	-1.88263	0.239179	-1.27717
O	-1.62681	1.17551	-2.02164
H	-3.67009	-0.194316	-2.34087
H	-3.75373	-0.49745	-0.560771
H	-2.83865	-1.63578	-1.63457
N	-1.08476	-0.110102	-0.26535
C	0.162602	0.557578	0.0118642
C	1.09558	-0.438926	0.673742
O	0.686701	-1.54092	1.0345
H	-1.28576	-0.900117	0.306788
H	0.621777	0.858623	-0.921496
C	-0.058558	1.7823	0.926404
H	-0.51993	1.47259	1.88831
H	0.892713	2.31306	1.13593
H	-0.750411	2.4942	0.425513
N	2.38214	-0.0747815	0.841651
C	3.34399	-0.959416	1.45683
H	2.69514	0.819542	0.539512
H	4.34613	-0.479089	1.50399
H	3.43574	-1.90532	0.87535
H	3.03096	-1.22052	2.49364
C	9.34308	2.47218	-1.94212
C	8.16845	1.88054	-1.26287
O	7.12562	2.50812	-1.14015
H	9.09855	3.50805	-2.26311
H	9.60993	1.87207	-2.83733
H	10.2094	2.50603	-1.24834
N	8.31582	0.638163	-0.796866
C	7.27659	-0.0538527	-0.0759859
C	7.93408	-1.03842	0.872648
O	9.14244	-1.25792	0.814493
H	9.18398	0.155394	-0.86825
H	6.72622	0.657126	0.527523
C	6.32723	-0.789222	-1.04717
H	6.88964	-1.52623	-1.65918
H	5.51453	-1.31458	-0.504925
H	5.86357	-0.0505287	-1.73687
N	7.14903	-1.65177	1.78013
C	7.6873	-2.60008	2.72731
H	6.17416	-1.45808	1.81441
H	6.88447	-2.99422	3.38863
H	8.46332	-2.11964	3.36627
H	8.15933	-3.45934	2.19816
