44
  This energy is -4.8585 and Call times are: 5117
C	-0.837465	-1.68482	2.92792
C	-0.246932	-1.64411	1.57118
O	0.42314	-2.57427	1.14431
H	-0.55072	-2.63702	3.42488
H	-1.94469	-1.63145	2.86513
H	-0.460463	-0.834892	3.53503
N	-0.485284	-0.54423	0.852967
C	0.0576433	-0.34066	-0.467014
C	0.217009	1.15178	-0.687897
O	-0.24673	1.96018	0.114071
H	-0.998321	0.221856	1.22949
H	1.04527	-0.781707	-0.518979
C	-0.865728	-0.95182	-1.54363
H	-1.876	-0.492174	-1.49765
H	-0.451687	-0.81376	-2.56345
H	-0.974383	-2.04267	-1.35767
N	0.889063	1.55328	-1.78479
C	1.09511	2.95314	-2.07481
H	1.2605	0.884146	-2.41991
H	1.66927	3.07874	-3.01915
H	1.66212	3.44546	-1.25178
H	0.119413	3.47951	-2.18481
C	6.72365	3.12019	-1.10655
C	6.97876	1.79266	-0.50345
O	8.11875	1.3803	-0.339713
H	7.69319	3.59779	-1.36683
H	6.18458	3.77063	-0.386072
H	6.11752	3.01065	-2.0305
N	5.90323	1.08199	-0.156219
C	5.99057	-0.244296	0.402249
C	4.72995	-0.999863	0.0260582
O	3.78281	-0.420929	-0.502591
H	4.98108	1.41383	-0.333384
H	6.82595	-0.76675	-0.0469732
C	6.14983	-0.187111	1.93737
H	5.28784	0.339541	2.39961
H	6.2321	-1.20187	2.37785
H	7.0742	0.376993	2.18968
N	4.69279	-2.32195	0.284356
C	3.5373	-3.12405	-0.043732
H	5.47063	-2.77341	0.70889
H	3.70036	-4.18556	0.245815
H	3.33128	-3.08695	-1.13802
H	2.63427	-2.74944	0.490455
