44
  This energy is -3.4327 and Call times are: 7523
C	2.06376	-1.63798	-2.27389
C	1.31897	-0.443691	-1.81553
O	1.48681	0.647628	-2.34208
H	2.74905	-1.34875	-3.1001
H	1.35771	-2.40977	-2.64615
H	2.66409	-2.05814	-1.43952
N	0.466449	-0.627754	-0.80473
C	-0.297261	0.447152	-0.221733
C	-0.567811	0.101661	1.2305
O	-0.299204	-1.01352	1.67315
H	0.370954	-1.51349	-0.359516
H	0.29546	1.35335	-0.232694
C	-1.62362	0.658309	-0.984252
H	-2.23673	-0.267827	-0.964294
H	-2.21443	1.49249	-0.553435
H	-1.40165	0.90212	-2.04615
N	-1.10209	1.06051	2.01228
C	-1.38901	0.824935	3.40812
H	-1.30874	1.95803	1.63701
H	-1.82397	1.73392	3.87905
H	-0.459617	0.55488	3.96001
H	-2.11506	-0.0120102	3.52434
C	5.9118	1.06824	-3.28665
C	5.63566	0.0154048	-2.28343
O	5.22192	-1.08579	-2.61898
H	5.66715	0.6829	-4.30031
H	6.98511	1.35106	-3.25907
H	5.2883	1.96418	-3.08264
N	5.86052	0.337804	-1.00755
C	5.59799	-0.566362	0.0842948
C	5.2715	0.259542	1.31428
O	5.42169	1.47985	1.31153
H	6.15834	1.25164	-0.74665
H	4.72284	-1.16081	-0.146712
C	6.81628	-1.47721	0.351426
H	7.71183	-0.868233	0.598798
H	6.62153	-2.18747	1.18096
H	7.04196	-2.06618	-0.56428
N	4.80591	-0.390992	2.39873
C	4.46341	0.312339	3.6129
H	4.68724	-1.37824	2.38042
H	4.09949	-0.39672	4.3888
H	3.66221	1.06206	3.41985
H	5.35011	0.85131	4.01838
