44
  This energy is -0.9741 and Call times are: 1940
C	2.14799	-2.32456	1.44749
C	1.34414	-1.82489	0.309379
O	1.45959	-2.30913	-0.808029
H	2.82049	-3.13611	1.09392
H	1.48174	-2.72891	2.23829
H	2.76595	-1.50389	1.86905
N	0.498939	-0.825687	0.573184
C	-0.318269	-0.206069	-0.440129
C	-0.575487	1.23084	-0.0269945
O	-0.25361	1.63233	1.08966
H	0.445873	-0.41465	1.47878
H	0.229226	-0.180112	-1.37405
C	-1.65131	-0.966166	-0.614782
H	-2.21822	-0.98398	0.340379
H	-2.28358	-0.506906	-1.40208
H	-1.43869	-2.01708	-0.909256
N	-1.15839	2.04577	-0.928187
C	-1.43719	3.43039	-0.626089
H	-1.40787	1.70368	-1.82808
H	-1.9176	3.93328	-1.49416
H	-0.497171	3.97597	-0.381181
H	-2.12156	3.51162	0.249236
C	5.05276	1.86877	-2.19743
C	5.66407	0.593801	-1.75938
O	5.33821	-0.471198	-2.26534
H	4.29963	1.66224	-2.98863
H	5.83116	2.54462	-2.60982
H	4.54818	2.3651	-1.34178
N	6.57843	0.676238	-0.790074
C	7.22902	-0.481913	-0.229744
C	7.60684	-0.164391	1.20483
O	7.49919	0.978062	1.64632
H	6.80336	1.54577	-0.359754
H	6.52868	-1.30742	-0.203701
C	8.48248	-0.860745	-1.04864
H	9.20592	-0.0179307	-1.06684
H	8.98453	-1.75942	-0.635299
H	8.18338	-1.08117	-2.09663
N	8.05355	-1.17772	1.9727
C	8.43137	-0.971616	3.35145
H	8.12988	-2.09612	1.59881
H	8.77151	-1.92491	3.81273
H	7.56901	-0.58492	3.94144
H	9.26014	-0.230793	3.42536
