44
  This energy is -7.0024 and Call times are: 6145
C	-0.555027	0.212806	3.42919
C	-0.160636	-0.539798	2.21709
O	0.361475	-1.64302	2.29895
H	-0.282463	-0.375918	4.33196
H	-1.65152	0.387255	3.43146
H	-0.0256614	1.18837	3.46304
N	-0.404227	0.0522044	1.04552
C	-0.0378468	-0.537036	-0.218251
C	0.214229	0.584885	-1.20785
O	-0.061691	1.74892	-0.923934
H	-0.792409	0.96804	0.996246
H	0.891734	-1.08037	-0.102948
C	-1.15225	-1.47373	-0.733959
H	-2.10344	-0.914475	-0.862463
H	-0.876159	-1.9444	-1.69976
H	-1.32531	-2.28225	0.00947607
N	0.756189	0.258982	-2.39785
C	1.03673	1.26026	-3.4003
H	0.976379	-0.687885	-2.60768
H	1.48037	0.794652	-4.30783
H	1.75379	2.01782	-3.00889
H	0.103259	1.79021	-3.69853
C	4.62121	-3.30311	-0.986408
C	4.26296	-1.86731	-1.02236
O	3.47625	-1.43177	-1.8517
H	4.08874	-3.8351	-1.80452
H	4.32206	-3.74794	-0.0141008
H	5.71534	-3.42819	-1.12888
N	4.84489	-1.08739	-0.108318
C	4.62871	0.336627	-0.045173
C	5.87054	0.977842	0.544972
O	6.76748	0.28806	1.02602
H	5.51439	-1.44934	0.534038
H	4.51124	0.724974	-1.04917
C	3.38808	0.668796	0.812577
H	3.51258	0.279789	1.84564
H	3.20291	1.7616	0.857517
H	2.49284	0.182917	0.366684
N	5.955	2.32242	0.513682
C	7.10169	3.02037	1.04674
H	5.22092	2.86327	0.116587
H	6.98328	4.11991	0.927389
H	8.03176	2.70866	0.518453
H	7.22894	2.79684	2.13071
