44
  This energy is -2.9758 and Call times are: 2648
C	0.705147	-1.1738	-3.19963
C	0.766894	-0.130716	-2.15115
O	1.48481	0.851698	-2.27713
H	1.39631	-0.903829	-4.02745
H	-0.326382	-1.25019	-3.60318
H	1.01181	-2.15561	-2.7812
N	0.00337366	-0.326471	-1.07361
C	-0.0107147	0.578809	0.0483627
C	-0.358379	-0.215909	1.29299
O	-0.730243	-1.38493	1.21033
H	-0.544566	-1.15128	-0.967223
H	0.982734	0.985056	0.192081
C	-1.03364	1.71471	-0.172088
H	-2.05465	1.29901	-0.309074
H	-1.04404	2.42624	0.678878
H	-0.764213	2.27774	-1.09228
N	-0.236322	0.402484	2.48409
C	-0.539521	-0.275981	3.72262
H	0.0699973	1.34749	2.53098
H	-0.377014	0.399659	4.59113
H	0.110612	-1.17187	3.84906
H	-1.6007	-0.614917	3.73554
C	5.12954	2.15741	2.5712
C	4.91066	0.952225	1.74008
O	4.06936	0.117857	2.04415
H	4.44672	2.12788	3.44798
H	4.91683	3.07329	1.98072
H	6.17875	2.1869	2.93366
N	5.67874	0.832336	0.654692
C	5.61173	-0.305987	-0.227511
C	6.97572	-0.490985	-0.865381
O	7.85611	0.355926	-0.726264
H	6.38735	1.49925	0.442649
H	5.40373	-1.1961	0.353047
C	4.53048	-0.101248	-1.31114
H	4.74913	0.805946	-1.91383
H	4.45959	-0.976929	-1.98839
H	3.54225	0.0399691	-0.821451
N	7.18548	-1.61545	-1.57783
C	8.4537	-1.88019	-2.21635
H	6.4622	-2.291	-1.67569
H	8.4281	-2.85416	-2.75296
H	9.27302	-1.91696	-1.46226
H	8.69768	-1.08037	-2.95249
