44
  This energy is -2.4816 and Call times are: 9640
C	0.0922278	-0.897427	-3.36137
C	-0.519246	-0.179219	-2.22057
O	-1.39697	0.654844	-2.3948
H	-0.361232	-0.534704	-4.30936
H	-0.0915415	-1.98854	-3.26952
H	1.18604	-0.708194	-3.39077
N	-0.0587268	-0.491626	-1.00702
C	-0.525307	0.153181	0.195095
C	0.598842	0.125581	1.21347
O	1.61976	-0.527726	1.007
H	0.684681	-1.14294	-0.884543
H	-0.741993	1.19252	-0.0180771
C	-1.77802	-0.558016	0.752005
H	-1.55339	-1.62162	0.980763
H	-2.15513	-0.0625052	1.67004
H	-2.58481	-0.532706	-0.0127125
N	0.439195	0.84658	2.34072
C	1.45782	0.885083	3.364
H	-0.392198	1.3721	2.48798
H	1.14	1.53208	4.21112
H	2.41179	1.28853	2.9536
H	1.65699	-0.137388	3.75901
C	5.90256	-0.647739	-3.04937
C	6.4578	-1.08887	-1.75003
O	6.26782	-2.22297	-1.33274
H	5.32152	-1.48034	-3.50216
H	6.72427	-0.365394	-3.74062
H	5.22848	0.222283	-2.90189
N	7.16676	-0.184826	-1.06998
C	7.73352	-0.452726	0.228317
C	7.81982	0.858519	0.986446
O	7.59446	1.92781	0.422937
H	7.27823	0.746902	-1.40361
H	7.06695	-1.10217	0.781973
C	9.13161	-1.09583	0.0979261
H	9.81881	-0.425349	-0.460875
H	9.57277	-1.31967	1.0908
H	9.04556	-2.04973	-0.466892
N	8.14237	0.804858	2.29377
C	8.2428	2.00089	3.09726
H	8.31715	-0.070096	2.73307
H	8.51763	1.74875	4.14517
H	7.27195	2.54727	3.11135
H	9.01884	2.68647	2.6863
