44
  This energy is -3.8371 and Call times are: 3650
C	0.446271	2.60709	2.26199
C	0.617985	1.99968	0.923074
O	1.01658	2.66107	-0.025657
H	0.712667	3.68529	2.21308
H	1.10999	2.10594	2.99757
H	-0.609589	2.51245	2.59259
N	0.313124	0.70435	0.815527
C	0.388247	-0.0145929	-0.431885
C	-0.629744	-1.13872	-0.39196
O	-1.22589	-1.41186	0.6481
H	-0.0490852	0.189397	1.58721
H	0.107466	0.646214	-1.24252
C	1.8082	-0.577805	-0.659388
H	2.09262	-1.26402	0.166599
H	1.88258	-1.12177	-1.62328
H	2.53741	0.261417	-0.67706
N	-0.85932	-1.81525	-1.5346
C	-1.81448	-2.89709	-1.59363
H	-0.370139	-1.5769	-2.36704
H	-1.86023	-3.32579	-2.61898
H	-2.83247	-2.53772	-1.31828
H	-1.53211	-3.70978	-0.885864
C	4.23906	3.21506	-0.431475
C	4.73354	1.92647	-0.96642
O	4.6103	1.64342	-2.15011
H	3.76506	3.79586	-1.25236
H	5.08208	3.80494	-0.0142035
H	3.48486	3.03522	0.363447
N	5.31208	1.10269	-0.0894511
C	5.80343	-0.203418	-0.451695
C	5.72306	-1.09537	0.772861
O	5.44967	-0.626995	1.87631
H	5.36832	1.32974	0.878609
H	5.15565	-0.632176	-1.20613
C	7.25668	-0.122443	-0.968167
H	7.92354	0.3076	-0.190737
H	7.64172	-1.11999	-1.26339
H	7.29299	0.541505	-1.85934
N	5.95294	-2.41234	0.603323
C	5.89305	-3.33871	1.70987
H	6.16866	-2.7732	-0.297966
H	6.1112	-4.37443	1.36792
H	4.88102	-3.32928	2.17568
H	6.63617	-3.06401	2.49311
