44
  This energy is -2.8014 and Call times are: 2695
C	2.14799	-1.39578	-2.35598
C	1.34414	-0.26898	-1.83128
O	1.45959	0.858855	-2.29071
H	2.82049	-1.02435	-3.15951
H	1.48174	-2.17745	-2.7777
H	2.76595	-1.83537	-1.54482
N	0.498939	-0.554799	-0.838151
C	-0.318269	0.444575	-0.196294
C	-0.575487	-0.000209517	1.23114
O	-0.25361	-1.12546	1.60785
H	0.445873	-1.46925	-0.447224
H	0.229226	1.37769	-0.149706
C	-1.65131	0.635981	-0.952346
H	-2.21822	-0.318553	-0.991261
H	-2.28358	1.41293	-0.475801
H	-1.43869	0.953604	-1.9965
N	-1.15839	0.882756	2.06578
C	-1.43719	0.550136	3.44339
H	-1.40787	1.78999	1.74366
H	-1.9176	1.40688	3.96534
H	-0.497171	0.293233	3.98342
H	-2.12156	-0.32677	3.50526
C	4.16202	-0.859336	2.85962
C	5.23279	-0.105345	2.16961
O	5.82898	0.803827	2.73031
H	4.02283	-0.446664	3.88245
H	4.43931	-1.93149	2.93932
H	3.20688	-0.765285	2.30112
N	5.50247	-0.471867	0.914493
C	6.48765	0.195662	0.10062
C	6.07304	0.0577828	-1.35219
O	5.14292	-0.678907	-1.67448
H	4.98062	-1.18668	0.457803
H	6.48934	1.25249	0.336677
C	7.89025	-0.411247	0.323376
H	7.89165	-1.49314	0.071281
H	8.66002	0.103409	-0.287446
H	8.16962	-0.30638	1.39449
N	6.75356	0.775552	-2.26746
C	6.42655	0.712606	-3.6729
H	7.50046	1.36926	-1.98688
H	7.09857	1.37393	-4.26304
H	5.3749	1.037	-3.84639
H	6.53431	-0.328209	-4.0553
