44
  This energy is -4.8069 and Call times are: 7609
C	2.03437	1.16108	2.57409
C	0.885471	1.31037	1.65274
O	0.0607477	2.20032	1.80839
H	1.97552	1.94115	3.36396
H	2.98829	1.28281	2.01915
H	2.01179	0.160382	3.05491
N	0.804525	0.424999	0.656776
C	-0.279299	0.416032	-0.29391
C	-0.468506	-1.00786	-0.782049
O	0.342385	-1.88571	-0.492994
H	1.4609	-0.318656	0.567232
H	-1.19435	0.710342	0.20478
C	0.0189899	1.35976	-1.47951
H	0.952014	1.05193	-1.99792
H	-0.814264	1.37223	-2.21167
H	0.161681	2.39442	-1.0981
N	-1.55644	-1.27239	-1.53202
C	-1.82232	-2.59942	-2.03649
H	-2.20337	-0.54978	-1.75197
H	-2.76301	-2.61339	-2.6299
H	-1.9264	-3.32503	-1.19748
H	-0.989615	-2.94533	-2.69078
C	7.00175	2.5818	-1.11237
C	5.75531	1.78624	-1.18047
O	4.80632	2.1534	-1.85946
H	6.88757	3.49717	-1.73279
H	7.85609	1.98858	-1.50088
H	7.20722	2.88209	-0.0632386
N	5.72999	0.660343	-0.463464
C	4.5723	-0.196208	-0.395375
C	4.58935	-0.908903	0.943784
O	5.56878	-0.836187	1.68347
H	6.49509	0.395715	0.116574
H	3.67629	0.411106	-0.426182
C	4.57363	-1.21861	-1.55293
H	5.4876	-1.84894	-1.51558
H	3.68002	-1.87501	-1.51954
H	4.56911	-0.67489	-2.52282
N	3.49385	-1.61235	1.29171
C	3.41697	-2.31871	2.54921
H	2.70961	-1.65604	0.681684
H	2.4373	-2.83562	2.65066
H	3.531	-1.61299	3.40375
H	4.22542	-3.08182	2.62145
