44
  This energy is -4.3592 and Call times are: 5085
C	-1.53393	-0.344553	3.105
C	-1.40509	0.301993	1.77966
O	-2.26616	1.06292	1.36018
H	-2.49265	-0.0332546	3.57388
H	-0.695015	-0.0369574	3.76404
H	-1.53039	-1.44941	2.99377
N	-0.307862	0.00592338	1.07909
C	-0.0629414	0.523383	-0.244096
C	0.794268	-0.479559	-0.992999
O	1.29279	-1.44089	-0.410736
H	0.364241	-0.647043	1.4164
H	-1.00295	0.604705	-0.775516
C	0.642278	1.8958	-0.177957
H	1.61163	1.81083	0.35793
H	0.823946	2.31121	-1.19036
H	0.00074873	2.6115	0.381113
N	0.979322	-0.281511	-2.31306
C	1.77525	-1.18664	-3.10894
H	0.56442	0.499882	-2.76732
H	1.80722	-0.85338	-4.16966
H	1.34924	-2.21562	-3.07756
H	2.81976	-1.23356	-2.72431
C	5.08368	1.74586	-2.91161
C	4.93926	1.50964	-1.45748
O	4.36647	2.31703	-0.738842
H	4.62287	2.72333	-3.17246
H	4.57123	0.943198	-3.48247
H	6.15824	1.76929	-3.19062
N	5.46725	0.37821	-0.98473
C	5.44381	0.0303734	0.414203
C	6.64986	-0.842914	0.704714
O	7.3517	-1.27174	-0.209198
H	5.96624	-0.249507	-1.57535
H	5.54663	0.930199	1.00781
C	4.13843	-0.711221	0.776507
H	4.03767	-1.63991	0.175315
H	4.10221	-0.972253	1.85404
H	3.26905	-0.0566707	0.54832
N	6.92443	-1.12091	1.99442
C	8.05473	-1.93922	2.36721
H	6.34728	-0.761434	2.72019
H	8.11141	-2.0516	3.47238
H	9.00592	-1.48031	2.01237
H	7.97136	-2.95405	1.9152
