30
  This energy is 0.000287624 and Call times are: 8337
C	-0.468161	-1.29733	0.129551
N	-1.66556	-0.947262	0.669697
C	-1.93926	0.365913	0.863356
C	0.442055	-0.273525	-0.207624
C	0.0323346	1.04598	0.0454898
N	-1.14837	1.42344	0.579942
H	-2.90618	0.5891	1.29614
N	-0.1994	-2.61127	-0.0620047
H	-0.893473	-3.29155	0.200819
H	0.678092	-2.90225	-0.459801
N	1.725	-0.298771	-0.766446
C	2.07794	0.977083	-0.847161
N	1.09105	1.83534	-0.369547
H	3.01622	1.3384	-1.23424
H	1.12104	2.8412	-0.325321
C	8.93403	1.12385	2.25672
C	9.66674	0.68399	1.02177
H	9.20504	0.498637	3.11524
H	7.85081	1.01877	2.12646
H	9.15566	2.16694	2.50186
C	9.47085	-0.693985	0.564374
C	10.4961	1.48775	0.309683
N	11.1589	1.05021	-0.827902
H	10.6861	2.51618	0.591306
N	10.1866	-1.04293	-0.59949
C	11.0404	-0.238206	-1.34448
H	10.0658	-1.9912	-0.933567
H	11.7708	1.66726	-1.34083
O	11.6402	-0.617371	-2.36546
O	8.73761	-1.53239	1.12652
