30
  This energy is -0.00940733 and Call times are: 10271
C	1.0017	-0.525206	-0.799872
N	1.66551	-1.14012	0.214672
C	1.17913	-1.03582	1.47538
C	-0.170403	0.198364	-0.494925
C	-0.564078	0.226179	0.853136
N	0.0737799	-0.373755	1.88046
H	1.74595	-1.54418	2.245
N	1.49196	-0.632488	-2.05824
H	2.33377	-1.1643	-2.207
H	1.02332	-0.188697	-2.83046
N	-1.06267	0.926676	-1.29009
C	-1.97194	1.38176	-0.438613
N	-1.71965	0.988079	0.872889
H	-2.82103	1.98982	-0.703309
H	-2.26131	1.20495	1.69397
C	6.85641	1.76549	1.89775
C	6.189	0.749031	1.01638
H	6.6666	2.78211	1.53465
H	7.9444	1.63265	1.89263
H	6.50162	1.69263	2.93025
C	6.56186	0.721669	-0.400168
C	5.26432	-0.14087	1.45681
N	4.66574	-1.06788	0.615857
H	4.94274	-0.175735	2.49046
N	5.89937	-0.255125	-1.17195
C	4.95039	-1.17575	-0.743639
H	6.14215	-0.291836	-2.15436
H	3.98031	-1.71983	0.967287
O	4.40653	-2.01164	-1.48622
O	7.39599	1.48276	-0.930764
