30
  This energy is -0.00141199 and Call times are: 2659
C	0.786428	0.767529	-0.843481
N	-0.160058	0.905528	-1.8095
C	-1.37077	0.323528	-1.62982
C	0.46577	0.0208417	0.309774
C	-0.825499	-0.528845	0.368858
N	-1.78481	-0.408828	-0.573209
H	-2.0871	0.464567	-2.42922
N	1.99502	1.3512	-1.02786
H	2.15856	1.87062	-1.87465
H	2.71641	1.2672	-0.331119
N	1.19778	-0.301073	1.45842
C	0.36476	-1.02788	2.19103
N	-0.874738	-1.1976	1.57988
H	0.593877	-1.45227	3.15444
H	-1.66919	-1.70588	1.93359
C	6.55705	2.44082	-0.187614
C	5.8336	1.15541	0.0947991
H	5.94846	3.10181	-0.815393
H	7.48389	2.25373	-0.742008
H	6.80535	2.97037	0.737141
C	5.43309	0.330477	-1.04777
C	5.53159	0.717809	1.34309
N	4.86137	-0.475544	1.57016
H	5.7977	1.27741	2.2314
N	4.75841	-0.862114	-0.714279
C	4.43847	-1.33032	0.554575
H	4.47236	-1.44793	-1.48914
H	4.64806	-0.779817	2.50838
O	3.83868	-2.39748	0.772129
O	5.64935	0.617392	-2.24254
