30
  This energy is -0.00242697 and Call times are: 2563
C	-0.285204	0.190059	1.34222
N	-1.29828	1.07219	1.13347
C	-1.6252	1.40697	-0.138498
C	0.385164	-0.341243	0.220312
C	-0.0542479	0.0901254	-1.04217
N	-1.0557	0.963446	-1.28006
H	-2.43867	2.11288	-0.248001
N	0.0377035	-0.141313	2.61552
H	-0.48124	0.274665	3.37133
H	0.782783	-0.791488	2.8027
N	1.44357	-1.24863	0.0966753
C	1.63555	-1.35976	-1.21087
N	0.756532	-0.571203	-1.94855
H	2.38026	-1.98238	-1.67833
H	0.703452	-0.483753	-2.95061
C	4.43159	1.90812	-1.37401
C	5.10769	0.876771	-0.5169
H	4.29548	1.53785	-2.39664
H	5.04381	2.81399	-1.45131
H	3.45256	2.18299	-0.970041
C	6.43237	0.406156	-0.929372
C	4.56256	0.358998	0.612558
N	5.21384	-0.593674	1.38269
H	3.58774	0.661761	0.974669
N	7.01155	-0.561067	-0.08219
C	6.47321	-1.10543	1.07773
H	7.9277	-0.90042	-0.348513
H	4.78753	-0.963787	2.21912
O	7.04588	-1.95922	1.77702
O	7.04303	0.800131	-1.9435
