30
  This energy is -0.0113543 and Call times are: 2349
C	-0.726179	0.825137	0.843116
N	0.219991	0.875539	1.81795
C	1.37873	0.194535	1.64356
C	-0.459579	0.0624218	-0.31341
C	0.78108	-0.594077	-0.366292
N	1.73872	-0.562503	0.58455
H	2.0973	0.26865	2.44991
N	-1.8827	1.50759	1.02224
H	-2.00925	2.0328	1.87179
H	-2.6024	1.48999	0.318945
N	-1.20598	-0.188043	-1.47057
C	-0.430914	-0.97735	-2.20211
N	0.784341	-1.25576	-1.58218
H	-0.68654	-1.37381	-3.17074
H	1.53609	-1.82683	-1.93342
C	7.54488	0.701909	-2.4558
C	6.76821	0.342915	-1.22157
H	8.22427	-0.11	-2.73975
H	8.17194	1.58355	-2.28005
H	6.8797	0.910304	-3.29922
C	7.52252	0.0361098	-0.00367386
C	5.41346	0.287007	-1.17195
N	4.7256	-0.0485645	-0.0147574
H	4.79458	0.501546	-2.03452
N	6.73429	-0.292857	1.11845
C	5.34795	-0.356552	1.19302
H	7.23542	-0.508496	1.97155
H	3.71713	-0.0833251	-0.00286241
O	4.71915	-0.655563	2.22312
O	8.76692	0.0511664	0.0848097
