15
  This energy is -0.00011648 and Call times are: 24665
C	0.255662	-0.00619612	0.339248
O	0.196874	1.15608	-0.0225533
O	-0.424162	-1.01019	-0.313363
H	0.845242	-0.35046	1.20226
H	-0.28214	-1.89113	0.0896062
C	3.85437	0.0153997	-1.6496
O	3.47983	0.0351719	-2.81531
O	3.22432	-0.723626	-0.686384
H	4.71993	0.583608	-1.2801
H	3.64396	-0.636097	0.202585
C	5.5284	0.335767	2.0174
O	5.99154	0.941899	1.06968
O	4.41668	-0.47848	1.86363
H	5.92203	0.368882	3.03977
H	4.11425	-0.926205	2.67914
