15
  This energy is -0.00099001 and Call times are: 25799
C	-0.144734	0.353491	-0.185976
O	-0.36219	-0.556515	-0.966904
O	0.460539	0.142039	1.03263
H	-0.40723	1.40424	-0.380718
H	0.569678	0.964838	1.55195
C	6.06488	0.901397	1.41084
O	6.37992	1.53484	2.41038
O	6.92434	0.699306	0.36615
H	5.07491	0.445209	1.26795
H	6.52476	0.170143	-0.364843
C	4.48197	-1.26013	-1.61803
O	3.82352	-1.0079	-0.626607
O	5.7894	-0.813108	-1.73358
H	4.12774	-1.83776	-2.47951
H	6.24151	-1.06306	-2.56431
