15
  This energy is -0.00133277 and Call times are: 2308
C	-0.299963	-0.055701	-0.295651
O	0.765121	-0.280872	-0.843501
O	-0.37799	0.301612	1.03187
H	-1.27485	-0.116506	-0.802401
H	-1.29758	0.450564	1.33315
C	4.01133	1.67156	-0.474208
O	4.02371	2.85307	-0.795845
O	3.61034	0.680525	-1.32741
H	4.31801	1.30881	0.517219
H	3.65688	-0.218498	-0.922917
C	4.17797	-2.03703	1.12905
O	4.50752	-1.0645	1.78147
O	3.73764	-1.89781	-0.178354
H	4.19402	-3.07215	1.489
H	3.49408	-2.73318	-0.62536
