15
  This energy is 5.264e-06 and Call times are: 6671
C	0.258662	0.307467	-0.138015
O	0.94166	-0.428621	0.552588
O	-1.08183	0.0748124	-0.350214
H	0.644111	1.20566	-0.643576
H	-1.49939	0.748582	-0.924919
C	13.3859	1.0056	0.0898067
O	12.3947	1.72099	0.163796
O	13.5033	0.00375553	-0.833994
H	14.2576	1.10535	0.752097
H	14.3592	-0.483115	-0.767834
C	16.8737	-1.02822	0.31347
O	16.6412	-0.110943	1.07806
O	15.9498	-1.39832	-0.651898
H	17.7916	-1.62721	0.308734
H	16.2217	-2.1456	-1.22165
