15
  This energy is -0.000751178 and Call times are: 10614
C	0.0910045	-0.394557	-0.128583
O	1.0612	0.287841	-0.408407
O	-1.02225	0.134477	0.485306
H	0.0191415	-1.47263	-0.337163
H	-1.72089	-0.531944	0.647746
C	10.0778	-1.63368	0.127979
O	10.4739	-2.78942	0.211348
O	10.7598	-0.580649	0.672848
H	9.14993	-1.3453	-0.38632
H	10.3142	0.286866	0.521562
C	8.29812	1.94983	-0.457769
O	7.79586	0.930224	-0.891602
O	9.49132	1.90817	0.247285
H	7.88044	2.95655	-0.573326
H	9.82034	2.77553	0.557784
