15
  This energy is 0.000200067 and Call times are: 10992
C	-0.0262744	-0.241841	0.3483
O	-0.482074	-0.907951	-0.564822
O	0.449583	1.03567	0.15444
H	0.0444127	-0.594401	1.3883
H	0.784092	1.44689	0.977613
C	8.49786	-1.06372	-0.665185
O	7.66062	-1.82138	-1.13906
O	8.16001	0.070707	0.0202583
H	9.58171	-1.22769	-0.748603
H	8.94513	0.575964	0.340136
C	11.6755	1.05138	0.66934
O	11.8359	0.0200189	0.0443291
O	10.401	1.52627	0.938879
H	12.4813	1.68063	1.06426
H	10.3682	2.36174	1.44671
