15
  This energy is -9.2566e-05 and Call times are: 6335
C	0.0341171	0.264145	-0.330989
O	1.10153	0.311934	0.255169
O	-1.00184	-0.53364	0.100765
H	-0.192851	0.842442	-1.23926
H	-1.79568	-0.468942	-0.468644
C	8.59842	-1.42153	-0.0387573
O	9.29078	-2.43123	-0.0657561
O	9.13297	-0.162603	-0.022947
H	7.4993	-1.43905	-0.0250284
H	8.44737	0.546995	-0.00180217
C	5.83588	1.53012	0.0505206
O	5.49479	0.362445	0.0335556
O	7.17833	1.87695	0.0398251
H	5.15175	2.38607	0.074918
H	7.35866	2.83832	0.0550253
