15
  This energy is 0.00218243 and Call times are: 1555
C	0.364094	0.148893	-0.16049
O	0.36797	-1.05282	-0.363264
O	-0.681063	0.779271	0.476958
H	1.17883	0.82411	-0.462467
H	-0.545024	1.74448	0.568984
C	5.30352	-1.41466	0.157698
O	4.59442	-2.40562	0.279137
O	6.31485	-1.34116	-0.760296
H	5.19013	-0.508122	0.769167
H	6.79485	-0.479142	-0.736745
C	7.30986	2.09588	0.208349
O	6.38571	1.89919	0.974731
O	7.69736	1.12245	-0.699863
H	7.90233	3.01665	0.158878
H	8.44906	1.36794	-1.27577
