15
  This energy is -0.00274544 and Call times are: 18072
C	-0.126354	-0.0213759	-0.405053
O	-0.672152	0.958597	0.0713967
O	0.714967	-0.821681	0.335056
H	-0.254337	-0.347833	-1.4481
H	1.07931	-1.57061	-0.179694
C	5.91513	-1.44438	-0.518113
O	6.48701	-2.46808	-0.871041
O	5.81492	-0.342516	-1.32233
H	5.43791	-1.32339	0.46484
H	5.32544	0.401643	-0.897277
C	3.92034	1.64079	1.17139
O	4.08085	0.599364	1.77946
O	4.4169	1.79519	-0.113977
H	3.39316	2.52086	1.55719
H	4.24066	2.66515	-0.525187
