15
  This energy is 0.00207352 and Call times are: 3732
C	-0.23591	-0.349186	-0.053904
O	0.121051	-0.0034008	-1.16667
O	0.125285	0.345939	1.07853
H	-0.865991	-1.22991	0.141618
H	-0.23459	-0.0487168	1.89911
C	5.90245	1.59124	-0.0218676
O	5.41751	2.7157	-0.0256289
O	5.61193	0.661052	-0.981684
H	6.6056	1.23568	0.744764
H	6.08047	-0.196246	-0.841918
C	7.79235	-1.9455	0.499253
O	7.96297	-1.0304	1.28256
O	6.94676	-1.79841	-0.589741
H	8.26548	-2.93164	0.569649
H	6.87067	-2.58573	-1.16534
