15
  This energy is -0.00016605 and Call times are: 21765
C	-0.372735	-0.108329	-0.172697
O	-0.457757	1.07449	0.108311
O	0.768479	-0.838155	0.074399
H	-1.18377	-0.687284	-0.63954
H	0.690482	-1.7736	-0.203927
C	15.0508	-0.0178223	0.956032
O	16.0691	-0.0420402	1.6358
O	14.7824	0.987114	0.0678026
H	14.2726	-0.793068	1.00015
H	13.9244	0.865159	-0.404401
C	11.5446	-0.461582	-1.009
O	11.9045	-1.28595	-0.189891
O	12.3266	0.648821	-1.28833
H	10.6116	-0.508686	-1.58225
H	11.9583	1.25744	-1.95983
