15
  This energy is -0.000350785 and Call times are: 19503
C	-0.336732	-0.182582	-0.183755
O	-0.645877	0.978942	0.0175836
O	0.898489	-0.681238	0.165016
H	-1.00338	-0.921866	-0.652732
H	1.00365	-1.62893	-0.0573091
C	4.22745	0.658997	-1.35037
O	3.6208	1.13442	-2.30196
O	3.87846	-0.532144	-0.77566
H	5.09561	1.14289	-0.880566
H	4.46242	-0.781243	-0.0200338
C	6.5844	-0.414207	1.75525
O	6.78594	0.624205	1.15428
O	5.54298	-1.25389	1.39064
H	7.17538	-0.77551	2.60466
H	5.45655	-2.06584	1.92937
