15
  This energy is 0.000454038 and Call times are: 8821
C	0.29027	-0.301319	-0.073761
O	0.0382434	0.201662	-1.15484
O	-0.318704	0.118662	1.08763
H	1.01233	-1.11947	0.0682596
H	-0.017409	-0.376553	1.87668
C	5.50128	1.0387	1.06202
O	6.13678	1.78039	1.80069
O	5.11992	-0.220946	1.43452
H	5.1856	1.31777	0.0466223
H	4.61448	-0.694366	0.731365
C	3.42716	-0.952868	-1.78113
O	3.82609	0.178525	-1.98332
O	3.67369	-1.58632	-0.572603
H	2.86008	-1.55844	-2.49736
H	3.31565	-2.49372	-0.499097
