15
  This energy is -0.000182694 and Call times are: 23277
C	-0.207667	0.188045	0.319381
O	0.978909	0.368881	0.530525
O	-0.656573	-0.508959	-0.780045
H	-1.01028	0.558001	0.97501
H	-1.63277	-0.573885	-0.817748
C	19.3115	0.988971	0.566627
O	20.2268	1.69602	0.968847
O	19.5175	-0.265312	0.0614255
H	18.2564	1.2975	0.576535
H	18.6823	-0.709291	-0.22038
C	15.9238	-0.880689	-0.608083
O	15.8818	0.241299	-0.139612
O	17.1326	-1.54483	-0.750622
H	15.0542	-1.45407	-0.949051
H	17.0703	-2.44181	-1.13601
