44
  This energy is -8.2504 and Call times are: 89971
C	-2.14601	2.73397	-0.181026
C	-0.82343	2.13179	0.100598
O	0.164705	2.83013	0.280355
H	-2.04713	3.84091	-0.208994
H	-2.8695	2.45778	0.614599
H	-2.52528	2.38212	-1.1636
N	-0.775513	0.798278	0.143427
C	0.447531	0.0675311	0.364184
C	0.323372	-1.28038	-0.320858
O	-0.750663	-1.65177	-0.790144
H	-1.58007	0.242522	-0.0454728
H	1.26828	0.594223	-0.106553
C	0.716193	-0.115131	1.87405
H	-0.120637	-0.664667	2.35547
H	1.66238	-0.664372	2.05734
H	0.795434	0.883677	2.35618
N	1.4301	-2.04501	-0.401663
C	1.40898	-3.34027	-1.04044
H	2.29096	-1.72558	-0.0196274
H	2.41542	-3.81255	-1.00527
H	1.10271	-3.24699	-2.10758
H	0.685577	-4.01771	-0.531612
C	6.29644	-2.94603	0.850235
C	5.3561	-1.84412	1.15471
O	4.61661	-1.89375	2.1279
H	6.17906	-3.74941	1.60961
H	7.34257	-2.57512	0.878228
H	6.08042	-3.36683	-0.15442
N	5.3629	-0.80835	0.312374
C	4.47461	0.318454	0.453099
C	4.22608	0.899923	-0.925922
O	4.87276	0.514258	-1.89792
H	5.94144	-0.800902	-0.498243
H	3.52108	-0.0239327	0.835438
C	5.08178	1.38603	1.38951
H	6.05501	1.74526	0.992251
H	4.40115	2.25264	1.51697
H	5.26262	0.936343	2.39022
N	3.27012	1.84236	-1.04413
C	2.95994	2.44882	-2.31777
H	2.75465	2.13851	-0.246852
H	2.1463	3.19931	-2.20824
H	2.6287	1.67716	-3.04997
H	3.85564	2.9612	-2.73768
