44
  This energy is -4.2371 and Call times are: 114
C	0.339572	3.24354	-1.21524
C	-0.174741	1.85953	-1.32072
O	-1.01221	1.55768	-2.15973
H	-0.16479	3.88156	-1.97315
H	1.43389	3.26044	-1.40211
H	0.131029	3.65329	-0.20444
N	0.322878	0.973881	-0.454472
C	-0.111341	-0.400051	-0.406247
C	0.0632973	-0.901678	1.01482
O	0.658522	-0.226444	1.85236
H	0.973749	1.24385	0.24934
H	-1.16798	-0.449097	-0.63807
C	0.700132	-1.26998	-1.39112
H	1.7831	-1.22839	-1.14724
H	0.365808	-2.32755	-1.3734
H	0.563886	-0.879932	-2.42342
N	-0.463014	-2.10341	1.32282
C	-0.351156	-2.65961	2.65109
H	-0.944705	-2.63321	0.632635
H	-0.847362	-3.65368	2.70425
H	-0.830591	-1.9881	3.39976
H	0.718559	-2.78581	2.93557
C	5.52455	3.45962	-0.0592083
C	4.73171	2.23054	-0.287085
O	3.53355	2.28565	-0.527506
H	4.85666	4.34562	-0.128442
H	6.32111	3.54912	-0.827466
H	5.9861	3.43555	0.950475
N	5.3949	1.07423	-0.212798
C	4.75141	-0.206453	-0.368754
C	5.53448	-1.22986	0.431881
O	6.62002	-0.941534	0.932052
H	6.36172	1.04339	0.0242051
H	3.75552	-0.159665	0.0538824
C	4.68958	-0.615233	-1.85681
H	5.71165	-0.673635	-2.28808
H	4.18387	-1.59334	-1.99133
H	4.11897	0.151749	-2.42469
N	4.99358	-2.4553	0.57931
C	5.6636	-3.49206	1.32922
H	4.11232	-2.66845	0.170628
H	5.05934	-4.4259	1.33551
H	5.82497	-3.17195	2.3841
H	6.65797	-3.72062	0.881854
