44
  This energy is 0 and Call times are: 13277
C	1.48918	2.29244	2.154
C	1.41526	1.57826	0.85955
O	2.09796	1.92484	-0.094497
H	2.21038	3.13413	2.06844
H	1.8349	1.60272	2.95244
H	0.491976	2.6997	2.42386
N	0.567835	0.548501	0.797464
C	0.354761	-0.215978	-0.406168
C	-1.05872	-0.766002	-0.373137
O	-1.74771	-0.671592	0.640814
H	-0.0111683	0.30401	1.57002
H	0.425194	0.441215	-1.26394
C	1.38046	-1.36512	-0.518687
H	1.30143	-2.04553	0.355859
H	1.23557	-1.95275	-1.44832
H	2.40778	-0.939981	-0.533127
N	-1.52875	-1.35	-1.49298
C	-2.86394	-1.89715	-1.55685
H	-0.95772	-1.41328	-2.30476
H	-3.06276	-2.3329	-2.56075
H	-3.62277	-1.105	-1.3621
H	-2.9974	-2.69808	-0.794068
C	4.19307	-1.98718	1.53966
C	4.58878	-0.893446	0.624064
O	3.7808	-0.384407	-0.140439
H	3.11977	-2.22918	1.38049
H	4.33823	-1.67419	2.59498
H	4.79999	-2.89464	1.33661
N	5.86441	-0.503754	0.681454
C	6.40794	0.51878	-0.177356
C	7.88504	0.234633	-0.374848
O	8.4529	-0.634074	0.284386
H	6.5199	-0.95551	1.27988
H	5.93486	0.457422	-1.14949
C	6.20367	1.92104	0.436802
H	6.69779	1.98786	1.42949
H	6.60565	2.71815	-0.221636
H	5.11632	2.10421	0.579807
N	8.54314	0.960398	-1.30015
C	9.949	0.756388	-1.56114
H	8.06556	1.65605	-1.82651
H	10.306	1.44846	-2.35538
H	10.1386	-0.289128	-1.89613
H	10.5501	0.938457	-0.640978
