44
  This energy is 0 and Call times are: 17603
C	2.94589	1.54177	-1.02829
C	2.17549	0.702096	-0.0835281
O	2.73582	0.0573045	0.792077
H	4.03026	1.44983	-0.801228
H	2.64633	2.60601	-0.926309
H	2.7675	1.20612	-2.07166
N	0.850291	0.690079	-0.24502
C	-0.0283592	-0.112041	0.569312
C	-1.2545	-0.456078	-0.255174
O	-1.44563	0.0706924	-1.34957
H	0.412282	1.18796	-0.988073
H	0.465414	-1.04338	0.817156
C	-0.434008	0.644273	1.85332
H	-0.949993	1.59477	1.59962
H	-1.09953	0.0317365	2.4955
H	0.479246	0.892769	2.4369
N	-2.11486	-1.36114	0.251447
C	-3.30605	-1.75489	-0.464245
H	-1.941	-1.77956	1.13675
H	-3.88275	-2.50821	0.116409
H	-3.04234	-2.1999	-1.45101
H	-3.9637	-0.874476	-0.647259
C	84.8666	-2.28145	-1.03324
C	84.4655	-0.96304	-0.492803
O	85.2921	-0.19388	-0.0219803
H	85.9641	-2.41008	-0.910922
H	84.6155	-2.34497	-2.11288
H	84.3462	-3.09442	-0.48439
N	83.1642	-0.670074	-0.547885
C	82.6169	0.555981	-0.0227361
C	81.185	0.290718	0.402776
O	80.632	-0.771712	0.125026
H	82.4982	-1.32333	-0.896644
H	83.1689	0.842827	0.863605
C	82.668	1.68047	-1.08016
H	82.093	1.391	-1.98551
H	82.2621	2.63349	-0.683321
H	83.7241	1.85205	-1.38263
N	80.5509	1.25454	1.09916
C	79.1891	1.089	1.55095
H	81.0163	2.1058	1.31786
H	78.8463	1.99033	2.10536
H	79.1041	0.207975	2.2276
H	78.505	0.927659	0.686529
