44
  This energy is -3.8995 and Call times are: 11251
C	0.599651	-3.20314	-1.22189
C	0.177944	-1.79613	-1.40532
O	0.0169829	-1.32405	-2.5223
H	0.740863	-3.67702	-2.21757
H	-0.177418	-3.76581	-0.663053
H	1.5591	-3.2455	-0.664433
N	-0.011007	-1.08334	-0.292395
C	-0.380334	0.310152	-0.310847
C	0.161609	0.95981	0.948437
O	0.650158	0.278961	1.84815
H	0.163652	-1.46975	0.608742
H	0.0955918	0.794711	-1.15425
C	-1.9142	0.473389	-0.387275
H	-2.40225	-0.0144627	0.48327
H	-2.2106	1.54196	-0.416088
H	-2.28974	-0.0162402	-1.31225
N	0.0947225	2.30279	1.03767
C	0.590398	3.009	2.19601
H	-0.300365	2.83685	0.297569
H	0.445768	4.10571	2.07963
H	1.67744	2.81225	2.34056
H	0.0547341	2.68016	3.11583
C	0.236645	-0.833124	1.04547
C	1.3015	-0.785065	0.0183789
O	1.19489	-1.40081	-1.03324
H	-0.582904	-1.49697	0.694048
H	-0.173938	0.183777	1.21891
H	0.64157	-1.23546	1.99796
N	2.37149	-0.0407127	0.307254
C	3.50726	0.0692067	-0.573938
C	4.73742	0.340142	0.271566
O	4.63452	0.591925	1.47062
H	2.46195	0.421727	1.18465
H	3.66295	-0.877625	-1.07583
C	3.29859	1.2005	-1.60441
H	3.14932	2.17384	-1.09023
H	4.1604	1.2861	-2.29756
H	2.38879	0.985391	-2.20636
N	5.93864	0.285972	-0.336843
C	7.16473	0.524365	0.388433
H	6.00192	0.0766777	-1.30703
H	8.04454	0.434387	-0.286159
H	7.28101	-0.212235	1.21619
H	7.16632	1.54602	0.832697
