44
  This energy is 7.4184e-320 and Call times are: 16203
C	1.14913	3.01351	-1.30804
C	0.472727	2.22359	-0.254638
O	0.20312	2.71704	0.831745
H	1.35256	4.03739	-0.925748
H	0.50099	3.08754	-2.20647
H	2.11227	2.53563	-1.58569
N	0.181202	0.956568	-0.558017
C	-0.437565	0.0518695	0.378577
C	0.00407316	-1.35852	0.0360567
O	0.629054	-1.58929	-0.997316
H	0.443761	0.557271	-1.4318
H	-0.0774214	0.269284	1.3764
C	-1.97669	0.166236	0.321442
H	-2.34753	-0.0670025	-0.699395
H	-2.46446	-0.515528	1.04794
H	-2.27666	1.20824	0.567607
N	-0.305794	-2.33952	0.906488
C	0.0777568	-3.71131	0.667245
H	-0.808463	-2.13255	1.73929
H	-0.267968	-4.36671	1.49679
H	1.1854	-3.80133	0.58783
H	-0.367931	-4.08399	-0.283343
C	5.99722	0.810924	-2.22226
C	6.64963	-0.113883	-1.26819
O	6.07499	-1.11519	-0.863734
H	4.97309	0.442576	-2.44883
H	6.57885	0.859386	-3.16677
H	5.92411	1.82723	-1.78085
N	7.88556	0.208734	-0.879874
C	8.63174	-0.569985	0.0768665
C	9.58741	0.359587	0.800858
O	9.74662	1.51851	0.422371
H	8.32445	1.04861	-1.18618
H	7.95191	-0.973754	0.816745
C	9.4082	-1.707	-0.622816
H	10.1134	-1.29268	-1.37454
H	9.97583	-2.32239	0.104923
H	8.68984	-2.37007	-1.15256
N	10.2434	-0.128617	1.87199
C	11.1688	0.684038	2.62666
H	10.0983	-1.06771	2.16546
H	11.6054	0.103525	3.469
H	10.6538	1.57813	3.04702
H	12.0009	1.03884	1.97648
