44
  This energy is -2.3926 and Call times are: 5892
C	2.36971	-2.39895	0.861494
C	1.53942	-1.21496	1.1776
O	1.44354	-0.79666	2.32313
H	2.82134	-2.79157	1.79839
H	3.18357	-2.11938	0.159913
H	1.74404	-3.1939	0.403569
N	0.908598	-0.641152	0.150374
C	0.0311634	0.492003	0.307304
C	-1.0068	0.443127	-0.798042
O	-0.90516	-0.361321	-1.7223
H	0.963777	-1.01776	-0.769946
H	-0.496425	0.407535	1.24919
C	0.823942	1.81607	0.247479
H	1.35691	1.9081	-0.722836
H	0.161293	2.69562	0.380946
H	1.58281	1.8265	1.0601
N	-2.04112	1.30371	-0.723023
C	-3.07991	1.32633	-1.72631
H	-2.10824	1.94438	0.0346705
H	-3.8405	2.102	-1.48745
H	-3.59245	0.338748	-1.78336
H	-2.65214	1.55177	-2.72997
C	9.30674	-2.80826	-0.446568
C	8.73536	-1.7359	0.398848
O	8.84826	-1.76204	1.61663
H	9.7912	-3.56926	0.20307
H	10.0683	-2.38713	-1.13613
H	8.50428	-3.29838	-1.03724
N	8.09615	-0.753413	-0.240305
C	7.45121	0.336402	0.448825
C	6.29755	0.821591	-0.408641
O	6.14995	0.409379	-1.55755
H	7.97711	-0.76721	-1.22899
H	7.03149	-0.0272559	1.37845
C	8.44715	1.48587	0.717294
H	8.87009	1.86636	-0.236851
H	7.96592	2.3253	1.25977
H	9.28677	1.10615	1.33954
N	5.44268	1.70882	0.137277
C	4.31253	2.22233	-0.601126
H	5.5763	2.02752	1.06983
H	3.73004	2.93861	0.0192684
H	3.63476	1.39327	-0.908636
H	4.65157	2.75049	-1.52158
