44
  This energy is 1.07706e-319 and Call times are: 13869
C	1.41166	-2.46251	2.01394
C	0.676396	-1.19068	1.83234
O	0.119676	-0.641486	2.77301
H	1.33627	-2.7819	3.0761
H	2.48262	-2.32577	1.75494
H	0.973634	-3.25322	1.36897
N	0.656492	-0.688079	0.595656
C	-0.0538796	0.519288	0.254777
C	-0.471585	0.427359	-1.20077
O	-0.0566663	-0.480278	-1.91893
H	1.07965	-1.1678	-0.167673
H	-0.958566	0.580693	0.846725
C	0.830595	1.76394	0.486714
H	1.75389	1.70645	-0.12832
H	0.290136	2.70098	0.24098
H	1.13092	1.80656	1.55645
N	-1.31552	1.36754	-1.66968
C	-1.77193	1.35787	-3.04
H	-1.64362	2.09174	-1.07222
H	-2.45921	2.21119	-3.23161
H	-2.31582	0.412192	-3.26617
H	-0.910339	1.43691	-3.74181
C	6.90802	-2.52139	0.810371
C	5.53214	-2.03342	0.565448
O	4.59477	-2.81161	0.455112
H	6.90244	-3.63243	0.847872
H	7.28582	-2.13101	1.77868
H	7.58203	-2.19285	-0.00868022
N	5.37962	-0.710444	0.471334
C	4.1091	-0.0887353	0.192415
C	4.37132	1.22249	-0.524168
O	5.51309	1.66712	-0.626085
H	6.15863	-0.0920761	0.522537
H	3.54405	-0.718353	-0.483544
C	3.31647	0.155299	1.49527
H	3.89122	0.809784	2.18473
H	2.33029	0.621018	1.29259
H	3.14301	-0.816588	2.00682
N	3.31274	1.87138	-1.04795
C	3.46617	3.12311	-1.75209
H	2.39703	1.49375	-0.958834
H	2.48095	3.49792	-2.10718
H	4.1326	2.9974	-2.63604
H	3.91647	3.89542	-1.08732
