44
  This energy is -1.0024 and Call times are: 13501
C	3.38994	-0.787333	0.0328495
C	2.22228	-0.0329118	0.54134
O	2.29365	0.626918	1.56893
H	4.24655	-0.650831	0.728175
H	3.67933	-0.413264	-0.971674
H	3.1481	-1.86922	-0.0313632
N	1.10151	-0.117594	-0.179128
C	-0.128238	0.52573	0.211276
C	-1.28359	-0.287222	-0.34174
O	-1.08443	-1.20838	-1.13137
H	1.04726	-0.69162	-0.991174
H	-0.211607	0.51178	1.29085
C	-0.184369	1.97571	-0.317545
H	-0.109484	1.98989	-1.4258
H	-1.12046	2.48635	-0.011773
H	0.674601	2.54978	0.0935072
N	-2.52639	0.0320758	0.0699982
C	-3.68659	-0.689557	-0.398362
H	-2.66712	0.778036	0.712501
H	-4.61522	-0.277688	0.0546563
H	-3.6136	-1.76808	-0.128686
H	-3.77433	-0.61596	-1.50653
C	6.78924	1.43382	2.76061
C	6.93506	0.350002	1.76299
O	6.34208	-0.712246	1.89111
H	6.1101	1.09599	3.57332
H	6.35632	2.33784	2.28303
H	7.77771	1.68535	3.19962
N	7.74405	0.598707	0.730484
C	8.01953	-0.37375	-0.297616
C	9.40378	-0.0958865	-0.852794
O	10.0156	0.923204	-0.538328
H	8.25171	1.45273	0.661365
H	8.04117	-1.3628	0.142767
C	6.96166	-0.304007	-1.42069
H	6.94639	0.707395	-1.8799
H	7.15493	-1.0574	-2.21161
H	5.95584	-0.502542	-0.990278
N	9.9358	-1.00714	-1.69099
C	11.2496	-0.830465	-2.26442
H	9.42713	-1.82752	-1.93041
H	11.5083	-1.68636	-2.92606
H	12.0214	-0.760584	-1.46394
H	11.2925	0.104981	-2.86794
