44
  This energy is 0.1113 and Call times are: 7581
C	0.209384	2.75374	-2.11796
C	-0.422231	2.01172	-1.00368
O	-1.25285	2.54313	-0.279744
H	-0.182626	3.79389	-2.13542
H	-0.0268594	2.26435	-3.08617
H	1.31071	2.78706	-1.97987
N	-0.0333623	0.745313	-0.838233
C	-0.526522	-0.0899817	0.228367
C	0.546399	-1.10779	0.566688
O	1.54577	-1.22773	-0.139413
H	0.673776	0.339365	-1.4101
H	-0.686525	0.515744	1.11161
C	-1.83433	-0.79928	-0.186085
H	-1.66821	-1.42911	-1.08595
H	-2.23156	-1.43475	0.631787
H	-2.60253	-0.0354898	-0.436772
N	0.366425	-1.86348	1.66786
C	1.33675	-2.85427	2.07156
H	-0.446735	-1.74902	2.22887
H	1.00875	-3.37017	3.0008
H	2.3259	-2.37939	2.26484
H	1.47152	-3.62027	1.27392
C	6.99951	2.7454	1.15641
C	6.66598	1.75255	0.110393
O	7.07213	1.88053	-1.03637
H	7.61758	3.55487	0.710752
H	7.57539	2.26187	1.9733
H	6.07073	3.18993	1.57215
N	5.90336	0.724444	0.489601
C	5.46059	-0.298443	-0.424849
C	4.13922	-0.845605	0.0812818
O	3.71035	-0.530745	1.18972
H	5.54658	0.655631	1.41687
H	5.27548	0.145526	-1.39503
C	6.5072	-1.42859	-0.537237
H	6.68968	-1.89142	0.456004
H	6.18408	-2.2156	-1.24908
H	7.46809	-1.00401	-0.901621
N	3.45526	-1.67715	-0.729113
C	2.1861	-2.24266	-0.334642
H	3.81655	-1.91699	-1.62411
H	1.78214	-2.89961	-1.13618
H	1.44278	-1.43745	-0.133661
H	2.29741	-2.84916	0.59321
