44
  This energy is 0 and Call times are: 16595
C	-1.99896	0.50496	-2.8039
C	-1.66071	0.748648	-1.38357
O	-2.20945	1.63644	-0.745509
H	-2.76507	1.24134	-3.13057
H	-2.40851	-0.519366	-2.92947
H	-1.09491	0.621679	-3.43805
N	-0.731243	-0.0473699	-0.84987
C	-0.266346	0.095734	0.507315
C	1.16479	-0.403455	0.572158
O	1.67339	-0.983687	-0.385118
H	-0.264158	-0.738877	-1.39348
H	-0.254026	1.14573	0.771857
C	-1.16154	-0.698291	1.48373
H	-1.16614	-1.77718	1.21914
H	-0.822076	-0.584881	2.5337
H	-2.20534	-0.321572	1.4136
N	1.85407	-0.180037	1.70839
C	3.22336	-0.614042	1.85957
H	1.42675	0.2948	2.47062
H	3.61503	-0.337464	2.86323
H	3.87275	-0.141332	1.08749
H	3.30015	-1.71958	1.74546
C	13.0736	-3.01243	0.240269
C	14.3277	-2.22606	0.233044
O	15.3915	-2.72795	0.568995
H	13.2882	-4.04261	0.598799
H	12.6517	-3.06934	-0.78515
H	12.3314	-2.54277	0.919642
N	14.2274	-0.952572	-0.154972
C	15.3522	-0.0508567	-0.173026
C	14.8326	1.35792	0.0434735
O	13.6257	1.59249	0.0333503
H	13.3477	-0.54701	-0.386298
H	16.0096	-0.283085	0.655578
C	16.1148	-0.146807	-1.51263
H	15.4436	0.10161	-2.36222
H	16.9913	0.532737	-1.53358
H	16.479	-1.18784	-1.65385
N	15.7385	2.33306	0.254185
C	15.3371	3.70281	0.475169
H	16.7106	2.12302	0.262868
H	16.2262	4.35325	0.628831
H	14.6859	3.78087	1.37581
H	14.7655	4.09077	-0.398818
