44
  This energy is 0 and Call times are: 14462
C	2.94813	-1.8158	0.352318
C	2.10562	-0.822234	-0.350652
O	2.57098	-0.101618	-1.22276
H	3.98881	-1.75364	-0.0336802
H	2.55971	-2.84072	0.175091
H	2.95634	-1.60729	1.44298
N	0.82515	-0.760185	0.0220604
C	-0.106836	0.185287	-0.540119
C	-1.16409	0.486066	0.505492
O	-1.22352	-0.165376	1.54655
H	0.470792	-1.32489	0.761927
H	0.409811	1.11295	-0.752587
C	-0.758114	-0.377836	-1.82229
H	-1.29715	-1.32403	-1.60278
H	-1.46755	0.346479	-2.27239
H	0.0345818	-0.598089	-2.57027
N	-2.02349	1.49315	0.254042
C	-3.05931	1.85521	1.19328
H	-1.95701	2.01147	-0.592125
H	-3.66154	2.70633	0.805796
H	-2.61607	2.15563	2.1703
H	-3.74367	0.995027	1.37457
C	8.37244	1.89366	-2.87296
C	7.5257	1.44192	-1.74596
O	6.46652	1.99686	-1.4879
H	7.89245	2.7668	-3.366
H	8.48565	1.07786	-3.61754
H	9.37415	2.19651	-2.50156
N	7.98376	0.407597	-1.03692
C	7.29263	-0.117174	0.114386
C	8.32257	-0.724735	1.04801
O	9.49214	-0.859427	0.693502
H	8.86737	-0.00749302	-1.23385
H	6.81546	0.696546	0.646164
C	6.24934	-1.17636	-0.30383
H	6.73983	-2.01647	-0.840188
H	5.70072	-1.57804	0.572637
H	5.5106	-0.711771	-0.992857
N	7.91008	-1.1002	2.27475
C	8.82044	-1.68269	3.23294
H	6.96058	-0.979456	2.54482
H	8.29188	-1.92347	4.18156
H	9.65152	-0.977581	3.46405
H	9.26589	-2.62159	2.83146
