44
  This energy is 0.0631 and Call times are: 6517
C	-1.14527	-0.923027	-3.15421
C	-1.30588	-0.211457	-1.86619
O	-2.20766	0.597871	-1.69829
H	-1.92972	-0.580292	-3.86347
H	-1.25146	-2.01776	-3.00249
H	-0.147216	-0.705512	-3.58972
N	-0.417076	-0.501469	-0.913135
C	-0.418419	0.141033	0.377504
C	1.00502	0.151427	0.902154
O	1.89245	-0.47668	0.327988
H	0.33583	-1.13207	-1.0785
H	-0.727436	1.17252	0.262733
C	-1.3525	-0.597955	1.36068
H	-1.02963	-1.65335	1.48689
H	-1.37289	-0.104749	2.35409
H	-2.38688	-0.6002	0.952764
N	1.25823	0.877486	2.00884
C	2.58385	0.95124	2.57759
H	0.527929	1.38231	2.45703
H	2.5878	1.59683	3.48336
H	3.30408	1.37602	1.84131
H	2.94407	-0.0623052	2.86761
C	7.69716	-3.09772	-1.14593
C	7.02471	-2.24328	-0.141488
O	6.37852	-2.73239	0.774823
H	7.48985	-4.16574	-0.917457
H	8.79442	-2.93055	-1.11752
H	7.31447	-2.86684	-2.16246
N	7.16291	-0.924442	-0.29627
C	6.53182	0.0345368	0.575875
C	6.28344	1.30362	-0.217417
O	6.75273	1.44334	-1.34523
H	7.65789	-0.540614	-1.07056
H	5.56667	-0.345906	0.886317
C	7.4187	0.329389	1.80541
H	8.40512	0.729631	1.48787
H	6.93751	1.05604	2.49166
H	7.59391	-0.614519	2.36637
N	5.52695	2.26078	0.354913
C	5.2326	3.49982	-0.326509
H	5.15261	2.12772	1.26664
H	4.59696	4.15613	0.307867
H	4.69176	3.30441	-1.28076
H	6.17175	4.04828	-0.568043
