44
  This energy is -4.1578 and Call times are: 10228
C	-3.17589	-1.40803	0.209477
C	-1.92351	-0.919434	0.829121
O	-1.83123	-0.774215	2.04024
H	-3.9367	-1.57625	1.00242
H	-2.99202	-2.36583	-0.32114
H	-3.56585	-0.656562	-0.509073
N	-0.915754	-0.648553	-0.00360749
C	0.349965	-0.125154	0.446469
C	0.947716	0.699199	-0.678115
O	0.44293	0.694823	-1.79922
H	-1.0195	-0.732804	-0.990525
H	0.183443	0.542564	1.28256
C	1.30797	-1.2679	0.848471
H	1.48746	-1.94727	-0.0119195
H	2.28122	-0.877235	1.20996
H	0.846797	-1.86255	1.66705
N	2.04026	1.43737	-0.399797
C	2.67471	2.25743	-1.40537
H	2.43183	1.43113	0.514374
H	3.55649	2.78701	-0.98201
H	1.96284	3.01974	-1.79702
H	3.01819	1.6335	-2.26204
C	4.43229	-3.05458	-0.0324565
C	5.18258	-1.98678	0.666135
O	5.25965	-1.96199	1.88673
H	3.98694	-3.74235	0.718873
H	5.11393	-3.63368	-0.690289
H	3.6168	-2.61262	-0.642973
N	5.75994	-1.06403	-0.106898
C	6.48725	0.0595702	0.428909
C	6.38401	1.20506	-0.560415
O	5.90068	1.03084	-1.67744
H	5.65395	-1.07466	-1.0971
H	6.01647	0.384147	1.34849
C	7.9662	-0.308825	0.678356
H	8.45249	-0.631819	-0.26676
H	8.53369	0.544024	1.10395
H	8.01736	-1.15413	1.39889
N	6.83162	2.41361	-0.166632
C	6.7691	3.56362	-1.03826
H	7.21567	2.53582	0.742568
H	7.18499	4.46308	-0.533043
H	5.71528	3.78016	-1.32786
H	7.35294	3.38302	-1.96974
