44
  This energy is -1.2209 and Call times are: 14037
C	-1.80683	-2.96873	-0.186255
C	-1.28143	-1.72291	-0.788781
O	-1.3385	-1.53034	-1.99546
H	-2.20353	-3.62651	-0.989898
H	-2.62746	-2.73396	0.523802
H	-0.996362	-3.50572	0.350296
N	-0.746823	-0.835834	0.0536322
C	-0.156314	0.403007	-0.388104
C	0.918711	0.796052	0.607582
O	1.04644	0.188745	1.66899
H	-0.670569	-1.02471	1.02851
H	0.330024	0.246467	-1.34288
C	-1.22339	1.51394	-0.49956
H	-1.71528	1.68223	0.482152
H	-0.783526	2.4693	-0.852157
H	-2.00387	1.20146	-1.22727
N	1.72735	1.82361	0.281596
C	2.78205	2.26493	1.16421
H	1.61111	2.30005	-0.583599
H	3.3355	3.12066	0.718518
H	3.50629	1.43988	1.35407
H	2.36408	2.58979	2.14446
C	3.45963	-1.5697	2.53838
C	4.53552	-1.55116	1.52188
O	5.3946	-2.42155	1.49349
H	3.60281	-2.44485	3.2088
H	2.46846	-1.65324	2.04507
H	3.49228	-0.641552	3.14711
N	4.51235	-0.538985	0.65162
C	5.51663	-0.362309	-0.367576
C	5.62656	1.11999	-0.67137
O	4.8169	1.91991	-0.206303
H	3.83038	0.184212	0.712912
H	6.47625	-0.684837	0.016779
C	5.15175	-1.15109	-1.64426
H	4.17227	-0.813247	-2.04492
H	5.92429	-1.03427	-2.43169
H	5.06881	-2.23192	-1.39674
N	6.64371	1.52329	-1.45799
C	6.83144	2.91475	-1.79677
H	7.29112	0.861642	-1.82152
H	7.72132	3.04347	-2.45159
H	6.98143	3.52605	-0.877477
H	5.94009	3.3122	-2.33403
