44
  This energy is 0 and Call times are: 16175
C	0.702055	-1.34491	3.13225
C	1.00759	-0.432204	2.00764
O	1.85833	0.440376	2.11378
H	1.33548	-1.07658	4.00555
H	0.916326	-2.39495	2.842
H	-0.366149	-1.25209	3.42107
N	0.30579	-0.615794	0.886865
C	0.460381	0.220723	-0.277137
C	-0.858839	0.237528	-1.02609
O	-1.77375	-0.519433	-0.707238
H	-0.412008	-1.30379	0.829404
H	0.665613	1.23634	0.0375466
C	1.59289	-0.303674	-1.1869
H	1.3777	-1.34181	-1.51857
H	1.73104	0.339916	-2.07978
H	2.54691	-0.314844	-0.615884
N	-0.99039	1.11396	-2.04127
C	-2.21132	1.20539	-2.80753
H	-0.240362	1.72117	-2.28173
H	-2.1229	1.98418	-3.59676
H	-3.06974	1.47015	-2.14852
H	-2.44072	0.232279	-3.29902
C	9.91065	-0.68519	2.36399
C	9.48424	-0.238936	1.01856
O	10.2732	0.2895	0.247362
H	10.9857	-0.441487	2.50819
H	9.77431	-1.7825	2.46428
H	9.31655	-0.166132	3.14546
N	8.20307	-0.443623	0.703794
C	7.63084	-0.0248686	-0.551499
C	6.15627	0.254213	-0.329441
O	5.61208	-0.042474	0.732419
H	7.56339	-0.837783	1.35748
H	8.09186	0.904507	-0.861894
C	7.81949	-1.11079	-1.63337
H	7.33761	-2.06141	-1.32005
H	7.39529	-0.794484	-2.60832
H	8.90539	-1.30445	-1.77354
N	5.47365	0.843317	-1.33094
C	4.06809	1.15238	-1.20822
H	5.93228	1.0796	-2.18117
H	3.6888	1.63389	-2.1364
H	3.89176	1.84752	-0.355585
H	3.47637	0.226108	-1.02651
