44
  This energy is -6.4344 and Call times are: 1317
C	1.07402	-2.82648	-1.72342
C	0.0583311	-1.79381	-1.41828
O	-0.940793	-1.66416	-2.11208
H	0.768713	-3.38368	-2.63567
H	1.15953	-3.54083	-0.877767
H	2.06056	-2.35067	-1.9063
N	0.297536	-1.02189	-0.355596
C	-0.576995	0.0534325	0.0411819
C	0.257274	1.10546	0.74743
O	1.43063	0.885602	1.04172
H	1.13533	-1.11258	0.175195
H	-0.998384	0.515814	-0.84271
C	-1.69839	-0.461579	0.969875
H	-1.26685	-0.926603	1.88177
H	-2.38659	0.354573	1.27121
H	-2.29092	-1.23587	0.435333
N	-0.331311	2.28441	1.02969
C	0.385745	3.34713	1.695
H	-1.28047	2.44509	0.780008
H	-0.269459	4.23466	1.83724
H	1.27196	3.65819	1.09571
H	0.745356	3.01267	2.69498
C	5.61029	-2.56824	-2.26814
C	5.11201	-2.07041	-0.966203
O	4.45489	-2.78712	-0.22395
H	5.27385	-3.61783	-2.41315
H	6.72004	-2.54041	-2.28915
H	5.20937	-1.94486	-3.09502
N	5.41755	-0.808049	-0.657222
C	4.96729	-0.169818	0.554586
C	4.85021	1.31934	0.289495
O	5.27434	1.80819	-0.755899
H	5.91835	-0.22428	-1.2899
H	3.97742	-0.532115	0.802591
C	5.94881	-0.437426	1.71659
H	6.96202	-0.0564857	1.46692
H	5.606	0.0372822	2.65874
H	6.02495	-1.53346	1.88764
N	4.25992	2.07805	1.23392
C	4.09917	3.50366	1.06674
H	3.91934	1.66371	2.07142
H	3.59136	3.94851	1.95075
H	3.48782	3.72663	0.1624
H	5.08946	3.99925	0.944782
