44
  This energy is -0.4823 and Call times are: 16343
C	-1.32353	-1.95075	-2.56038
C	-0.568867	-1.79687	-1.29628
O	-0.267822	-2.76831	-0.616521
H	-1.5479	-3.02698	-2.72551
H	-0.721433	-1.57411	-3.41382
H	-2.27961	-1.38855	-2.50615
N	-0.243577	-0.549944	-0.947349
C	0.452487	-0.237794	0.276013
C	0.049609	1.16021	0.705929
O	-0.613732	1.88099	-0.0371515
H	-0.531245	0.233939	-1.49016
H	0.131354	-0.919526	1.05367
C	1.98175	-0.323796	0.0780019
H	2.31309	0.383008	-0.712361
H	2.5287	-0.0990815	1.01655
H	2.25281	-1.35296	-0.244021
N	0.437164	1.57453	1.92829
C	0.0956205	2.88708	2.42502
H	0.969947	0.975458	2.51678
H	0.504595	3.03904	3.44819
H	-1.01026	3.01566	2.46697
H	0.510293	3.67909	1.76026
C	8.33936	2.90523	-1.69748
C	8.32939	2.0551	-0.485733
O	9.03649	2.31744	0.477389
H	9.06791	3.73343	-1.55911
H	7.33152	3.33815	-1.86954
H	8.64016	2.30616	-2.58276
N	7.51441	0.99791	-0.509178
C	7.4272	0.0549024	0.577875
C	7.02873	-1.29206	0.00473087
O	6.68108	-1.39877	-1.16977
H	6.97544	0.774403	-1.31628
H	8.405	-0.0626369	1.02812
C	6.39839	0.520896	1.63127
H	5.39287	0.631483	1.17219
H	6.33212	-0.189959	2.48028
H	6.70577	1.51182	2.03118
N	7.07864	-2.3601	0.824983
C	6.72296	-3.6827	0.366323
H	7.36641	-2.2545	1.77109
H	6.82902	-4.42546	1.18748
H	7.38042	-3.99608	-0.476775
H	5.6683	-3.70406	0.00801668
