44
  This energy is 0 and Call times are: 17883
C	0.0177345	-3.08967	1.60197
C	0.645485	-2.06823	0.733793
O	1.8197	-2.15466	0.401882
H	0.774565	-3.85814	1.8713
H	-0.820993	-3.58316	1.06741
H	-0.363369	-2.61895	2.5327
N	-0.137037	-1.05973	0.342685
C	0.342533	0.0316718	-0.468126
C	-0.486927	1.26036	-0.145844
O	-1.4903	1.17556	0.559688
H	-1.07964	-0.98156	0.654557
H	1.36722	0.254204	-0.197703
C	0.241189	-0.311221	-1.97059
H	-0.811412	-0.529305	-2.25078
H	0.62037	0.515915	-2.60509
H	0.849229	-1.21785	-2.18194
N	-0.0790087	2.44064	-0.652377
C	-0.801981	3.66418	-0.394616
H	0.737714	2.48987	-1.21772
H	-0.309174	4.52547	-0.897148
H	-0.843104	3.87317	0.69896
H	-1.84774	3.58962	-0.771405
C	103.8	1.7194	1.36606
C	103.182	0.496121	0.806404
O	103.861	-0.478054	0.512234
H	104.901	1.57732	1.43341
H	103.401	1.91912	2.38257
H	103.59	2.58939	0.708884
N	101.858	0.521884	0.642515
C	101.12	-0.576413	0.0693779
C	99.8848	-0.014175	-0.608169
O	99.5702	1.16585	-0.465591
H	101.324	1.33705	0.848352
H	101.722	-1.0491	-0.697149
C	100.724	-1.60081	1.15498
H	100.098	-1.1188	1.93611
H	100.167	-2.45827	0.724067
H	101.643	-1.99301	1.64276
N	99.156	-0.850476	-1.3734
C	97.9674	-0.403252	-2.06137
H	99.4288	-1.80091	-1.47995
H	97.5095	-1.23701	-2.63796
H	98.2106	0.421035	-2.77037
H	97.2128	-0.0228208	-1.33546
