44
  This energy is 0 and Call times are: 17071
C	-2.50134	0.770842	-2.29386
C	-1.12644	0.333595	-1.96279
O	-0.385395	-0.127958	-2.81966
H	-2.69513	0.587689	-3.37311
H	-2.61835	1.85534	-2.08672
H	-3.23987	0.198345	-1.69394
N	-0.750947	0.469844	-0.688886
C	0.540834	0.0491776	-0.206288
C	0.400768	-0.322089	1.25799
O	-0.638004	-0.0845153	1.87136
H	-1.37941	0.80915	0.00521471
H	0.847326	-0.843317	-0.737463
C	1.58774	1.17082	-0.382759
H	1.27895	2.0832	0.170635
H	2.5898	0.854211	-0.0275655
H	1.66783	1.43182	-1.46063
N	1.44851	-0.92557	1.85302
C	1.40474	-1.32022	3.24173
H	2.27905	-1.11318	1.33913
H	2.3614	-1.80018	3.54451
H	0.577582	-2.04547	3.41807
H	1.23351	-0.435369	3.8966
C	46.3734	-3.34814	0.374019
C	45.5805	-2.15773	0.755276
O	44.622	-2.25063	1.50968
H	45.9386	-4.24951	0.858083
H	47.425	-3.2314	0.710657
H	46.3513	-3.48589	-0.727621
N	45.9688	-0.993099	0.230656
C	45.2709	0.244623	0.474474
C	45.4763	1.14805	-0.726854
O	46.2746	0.846873	-1.61216
H	46.7259	-0.939729	-0.414178
H	44.209	0.0467643	0.551447
C	45.7893	0.926411	1.75964
H	46.8764	1.13916	1.67699
H	45.25	1.87365	1.96583
H	45.6361	0.244321	2.6243
N	44.7487	2.28066	-0.789134
C	44.8729	3.19888	-1.89712
H	44.1049	2.5052	-0.0651491
H	44.1923	4.06872	-1.76521
H	44.6148	2.69424	-2.85629
H	45.917	3.57929	-1.97722
