44
  This energy is 0 and Call times are: 18443
C	2.51664	2.07027	-1.22197
C	2.03797	0.98143	-0.3408
O	2.82357	0.267454	0.267053
H	3.6283	2.08015	-1.22287
H	2.14884	3.05077	-0.853073
H	2.15787	1.90798	-2.26025
N	0.714745	0.827172	-0.253308
C	0.100238	-0.215554	0.530059
C	-1.23321	-0.561193	-0.105554
O	-1.6936	0.124973	-1.01601
H	0.0890981	1.38985	-0.786058
H	0.717409	-1.10438	0.48854
C	-0.0985721	0.237866	1.99298
H	-0.740337	1.14354	2.03685
H	-0.558326	-0.561365	2.60972
H	0.88901	0.49325	2.43548
N	-1.8841	-1.64645	0.35768
C	-3.15648	-2.05565	-0.189839
H	-1.49362	-2.19151	1.09219
H	-3.52958	-2.96955	0.322811
H	-3.06292	-2.2775	-1.27764
H	-3.91526	-1.24939	-0.0659545
C	140.303	-1.18294	-0.366912
C	139.051	-1.03056	0.408629
O	138.857	-1.67484	1.43022
H	140.947	-1.94482	0.122499
H	140.85	-0.217897	-0.402827
H	140.074	-1.51657	-1.40103
N	138.158	-0.160657	-0.0699668
C	136.877	0.0642786	0.550742
C	135.898	0.493653	-0.526342
O	136.288	0.754891	-1.66293
H	138.313	0.326133	-0.924909
H	136.512	-0.867394	0.964961
C	136.978	1.14317	1.65115
H	137.343	2.10215	1.22474
H	136.001	1.31555	2.14615
H	137.705	0.811439	2.42429
N	134.595	0.56861	-0.193113
C	133.591	0.962863	-1.15347
H	134.299	0.349367	0.730581
H	132.58	0.963372	-0.688232
H	133.578	0.261134	-2.01873
H	133.798	1.98611	-1.54192
