44
  This energy is -7.3297 and Call times are: 9912
C	0.0158401	-0.446825	-3.45149
C	-0.653718	-0.506902	-2.13269
O	-1.85829	-0.700027	-2.04257
H	-0.741222	-0.582067	-4.25426
H	0.774023	-1.25384	-3.53288
H	0.509532	0.538776	-3.58547
N	0.126552	-0.337388	-1.06273
C	-0.386926	-0.326913	0.284413
C	0.522156	0.544613	1.13033
O	1.58788	0.963671	0.682744
H	1.09853	-0.140305	-1.15372
H	-1.36833	0.130747	0.289086
C	-0.454147	-1.75836	0.86034
H	0.554191	-2.22447	0.865544
H	-0.860974	-1.76505	1.89231
H	-1.11826	-2.38029	0.221195
N	0.114722	0.846076	2.37898
C	0.911159	1.67354	3.25487
H	-0.75268	0.501019	2.72194
H	0.406324	1.80618	4.2371
H	1.07256	2.67995	2.80504
H	1.90888	1.21091	3.43286
C	6.32629	-0.545533	-3.19159
C	5.20574	-0.507222	-2.22512
O	4.04396	-0.588608	-2.59938
H	5.91944	-0.635207	-4.22226
H	6.97948	-1.41944	-2.98576
H	6.92436	0.387434	-3.12124
N	5.53625	-0.377824	-0.938108
C	4.55541	-0.282492	0.114228
C	5.15525	0.527759	1.24792
O	6.34541	0.836273	1.24046
H	6.48447	-0.271611	-0.652704
H	3.69271	0.261477	-0.249741
C	4.14126	-1.68494	0.611094
H	5.02425	-2.23946	0.994338
H	3.37609	-1.62534	1.41202
H	3.71244	-2.26277	-0.236584
N	4.33666	0.900416	2.25143
C	4.81728	1.67778	3.36987
H	3.37567	0.64473	2.23774
H	3.99373	1.88347	4.08867
H	5.23056	2.65226	3.02221
H	5.62555	1.13265	3.90902
