29
  This energy is 0.00118262 and Call times are: 3614
C	0.00908797	0.965659	0.748017
N	0.323251	1.918	1.74531
H	1.14957	1.78468	2.34601
H	-0.267741	2.75128	1.88138
N	0.800407	-0.127702	0.582891
C	0.520464	-1.05742	-0.367944
O	1.24403	-2.02859	-0.497048
N	-0.575724	-0.901252	-1.18059
C	-1.3878	0.179965	-1.04244
H	-0.791586	-1.61592	-1.91208
C	-1.11056	1.13992	-0.0707142
H	-2.25019	0.296506	-1.68659
H	-1.75452	2.00291	0.0431526
C	8.8808	-1.15539	0.714695
O	9.33304	-2.24123	1.11814
N	8.67057	-0.0915115	1.66819
C	8.17773	1.16739	1.38282
H	8.9242	-0.346266	2.61495
N	8.04361	2.05196	2.4133
H	8.2859	1.83105	3.36317
H	7.6834	2.9659	2.19537
N	7.83259	1.54621	0.158513
C	8.01262	0.573545	-0.782009
C	8.5022	-0.725694	-0.598726
N	8.53359	-1.4108	-1.81552
C	8.07551	-0.548549	-2.70738
N	7.74292	0.679312	-2.12732
H	7.95998	-0.73765	-3.76125
H	7.37527	1.49785	-2.58518
