29
  This energy is -0.00849864 and Call times are: 4122
C	-0.168385	-1.19122	-0.211531
N	-0.66347	-2.44687	-0.634024
H	-1.53244	-2.50167	-1.18475
H	-0.163158	-3.31612	-0.396917
N	-0.841901	-0.0548135	-0.533778
C	-0.387429	1.16391	-0.140072
O	-1.00795	2.16785	-0.440802
N	0.768665	1.26203	0.594935
C	1.46656	0.146072	0.934311
H	1.11875	2.19904	0.898042
C	1.01003	-1.10916	0.536077
H	2.3771	0.23104	1.5139
H	1.56251	-2.001	0.804004
C	5.46817	-0.318139	0.925147
O	4.47468	-0.73129	1.54854
N	6.32445	0.66193	1.5508
C	7.46045	1.21872	0.995232
H	6.01747	0.928102	2.47843
N	8.15168	2.13526	1.73312
H	7.87432	2.42097	2.65573
H	8.9772	2.53533	1.3196
N	7.90106	0.90094	-0.215732
C	7.1241	-0.0241921	-0.850967
C	5.9614	-0.646389	-0.379472
N	5.46233	-1.53466	-1.3349
C	6.3008	-1.4501	-2.35399
N	7.33423	-0.540843	-2.10903
H	6.22534	-2.00134	-3.27605
H	8.09646	-0.294807	-2.71999
