29
  This energy is 0.000381539 and Call times are: 6617
C	0.693892	0.969439	-0.266103
N	1.65471	2.00715	-0.250291
H	2.30865	2.09471	0.540979
H	1.71096	2.68347	-1.02589
N	0.634449	0.0862022	0.766006
C	-0.279302	-0.919686	0.774965
O	-0.313371	-1.6987	1.71057
N	-1.1615	-1.0565	-0.268791
C	-1.12949	-0.190974	-1.31638
H	-1.86451	-1.82991	-0.262525
C	-0.196716	0.844474	-1.33639
H	-1.82801	-0.304924	-2.13571
H	-0.167345	1.53644	-2.16869
C	10.2401	-0.120833	-0.197673
O	11.4719	0.000123594	-0.317582
N	9.64384	-1.41832	-0.412697
C	8.29828	-1.71797	-0.318639
H	10.3188	-2.13484	-0.650534
N	7.90999	-3.00447	-0.556328
H	8.5537	-3.73849	-0.794258
H	6.928	-3.21249	-0.485873
N	7.37782	-0.812971	-0.00993882
C	7.89165	0.433448	0.203339
C	9.23004	0.839898	0.133827
N	9.34112	2.20231	0.420951
C	8.10409	2.60586	0.656802
N	7.18029	1.56329	0.536833
H	7.80956	3.60957	0.912857
H	6.18203	1.60652	0.664955
