29
  This energy is -0.000353966 and Call times are: 6793
C	-0.693427	-0.757757	-0.661114
N	-1.71285	-1.33626	-1.45255
H	-2.52706	-0.773931	-1.73935
H	-1.65277	-2.32134	-1.74945
N	-0.78963	0.543577	-0.2788
C	0.176147	1.12313	0.481608
O	0.0679787	2.29048	0.811747
N	1.27083	0.393476	0.876174
C	1.39845	-0.909749	0.511606
H	2.01397	0.838611	1.461
C	0.414244	-1.51468	-0.268135
H	2.26412	-1.47879	0.826317
H	0.511467	-2.55255	-0.561045
C	5.00617	0.504044	1.35493
O	4.86214	1.14054	2.41345
N	4.95698	-0.938496	1.39792
C	5.09823	-1.78718	0.316736
H	4.80256	-1.30644	2.32869
N	5.02415	-3.13096	0.542752
H	4.87196	-3.52827	1.45311
H	5.12875	-3.74066	-0.25089
N	5.30165	-1.35141	-0.920311
C	5.35662	0.0091567	-1.01474
C	5.22638	0.952592	0.0120362
N	5.34304	2.24753	-0.498327
C	5.53833	2.08902	-1.79658
N	5.55509	0.740073	-2.16373
H	5.67206	2.88234	-2.51248
H	5.68554	0.353554	-3.08481
