29
  This energy is 0.0012547 and Call times are: 1962
C	-0.132112	-0.0933788	-1.21076
N	-0.639679	-0.135616	-2.53017
H	-1.6445	0.0124136	-2.70293
H	-0.0133941	-0.31398	-3.32897
N	-0.973443	0.143293	-0.169106
C	-0.511014	0.188893	1.10796
O	-1.28387	0.402507	2.02473
N	0.8245	-0.00551071	1.36297
C	1.69301	-0.244381	0.345023
H	1.18081	0.0294423	2.34493
C	1.23014	-0.293398	-0.968734
H	2.74447	-0.396708	0.553531
H	1.91814	-0.483373	-1.78296
C	7.40221	1.40958	0.318482
O	7.39179	2.6482	0.428284
N	6.53113	0.628397	1.16474
C	6.42404	-0.749171	1.16642
H	5.97163	1.19233	1.79286
N	5.54471	-1.32264	2.03835
H	4.97526	-0.792267	2.67411
H	5.47439	-2.32641	2.03229
N	7.13587	-1.52877	0.362009
C	7.97742	-0.836737	-0.460153
C	8.16051	0.549376	-0.540637
N	9.11526	0.859228	-1.51191
C	9.49715	-0.307666	-2.00308
N	8.83191	-1.37613	-1.39434
H	10.23	-0.452415	-2.77881
H	8.94033	-2.3592	-1.58571
