29
  This energy is -0.00744203 and Call times are: 8745
C	0.249624	-0.94106	0.737701
N	0.62738	-2.19474	1.27234
H	0.949658	-2.94777	0.647429
H	0.58464	-2.36789	2.28739
N	0.312569	-0.730731	-0.604197
C	-0.0446796	0.464616	-1.14304
O	0.0201532	0.629398	-2.34804
N	-0.477518	1.48344	-0.329984
C	-0.552503	1.30697	1.01569
H	-0.752417	2.40303	-0.743765
C	-0.18873	0.0853433	1.57951
H	-0.894635	2.11458	1.65046
H	-0.246767	-0.0600129	2.65092
C	6.03119	-1.23796	0.559248
O	6.31335	-2.39385	0.920679
N	6.84522	-0.142736	1.0315
C	6.66555	1.19235	0.724211
H	7.60062	-0.437663	1.63811
N	7.53431	2.09656	1.26272
H	8.29363	1.8372	1.86765
H	7.3948	3.06634	1.03338
N	5.69087	1.62569	-0.0655783
C	4.89082	0.6264	-0.539293
C	4.98643	-0.748453	-0.2904
N	3.97492	-1.4371	-0.963867
C	3.28862	-0.503297	-1.60084
N	3.80731	0.775176	-1.37457
H	2.42876	-0.673425	-2.2265
H	3.4702	1.65086	-1.74109
