29
  This energy is -0.00784164 and Call times are: 1453
C	-0.36953	0.442162	1.07706
N	-0.524233	1.19619	2.26355
H	0.0955302	1.99733	2.45191
H	-1.25465	0.953853	2.94904
N	0.599726	0.776655	0.184001
C	0.769144	0.0684178	-0.9634
O	1.64428	0.387071	-1.74825
N	-0.0449196	-1.00363	-1.23621
C	-1.02372	-1.3652	-0.365109
H	0.0848407	-1.54875	-2.1185
C	-1.20675	-0.646226	0.814803
H	-1.66169	-2.21142	-0.586749
H	-1.9851	-0.930422	1.51181
C	4.05625	-1.05459	-0.166663
O	3.23077	-1.98075	-0.0821707
N	4.32116	-0.474283	-1.46214
C	5.20467	0.555258	-1.72408
H	3.7835	-0.898089	-2.20839
N	5.32942	0.979983	-3.01496
H	4.81112	0.581255	-3.77795
H	5.9757	1.72983	-3.19552
N	5.92987	1.14106	-0.779365
C	5.7157	0.627078	0.466838
C	4.84858	-0.408416	0.837196
N	4.92099	-0.635901	2.2134
C	5.80722	0.23805	2.6601
N	6.3229	1.03398	1.63283
H	6.11695	0.349317	3.68549
H	7.00735	1.76936	1.70732
