29
  This energy is -0.0010232 and Call times are: 4344
C	0.539156	-1.00953	0.426929
N	1.39032	-2.11971	0.634974
H	2.18207	-2.29105	-0.00156784
H	1.22878	-2.766	1.42132
N	0.767702	-0.167407	-0.615897
C	-0.0352301	0.906345	-0.837675
O	0.189414	1.64661	-1.77838
N	-1.0969	1.15513	-0.00257987
C	-1.35383	0.333452	1.04929
H	-1.71481	1.98078	-0.172583
C	-0.537146	-0.770793	1.28651
H	-2.19253	0.535748	1.70343
H	-0.737811	-1.42822	2.12313
C	6.11082	-0.34167	-1.2797
O	6.59121	-0.84972	-2.30802
N	6.11221	1.09631	-1.14774
C	5.6191	1.81247	-0.073909
H	6.52286	1.57105	-1.94245
N	5.70369	3.1738	-0.118233
H	6.10482	3.67531	-0.891105
H	5.34231	3.68626	0.668742
N	5.07247	1.23441	0.988456
C	5.04734	-0.128192	0.912681
C	5.51722	-0.944844	-0.123466
N	5.30532	-2.29104	0.182802
C	4.72404	-2.28595	1.37058
N	4.54358	-0.989079	1.86078
H	4.41441	-3.15801	1.92139
H	4.12778	-0.713233	2.73589
