29
  This energy is -0.00485403 and Call times are: 2103
C	0.424865	-0.827311	-0.791932
N	0.579063	-1.74721	-1.85508
H	-0.197672	-1.91502	-2.51077
H	1.46528	-2.25701	-1.98486
N	-0.751703	-0.163719	-0.636286
C	-0.925455	0.725196	0.376863
O	-1.98847	1.3076	0.496003
N	0.0956406	0.965401	1.26348
C	1.28478	0.319247	1.13687
H	-0.0373334	1.64895	2.0429
C	1.47442	-0.594559	0.10169
H	2.08525	0.513603	1.83951
H	2.41989	-1.11174	-0.00325642
C	6.88234	-1.41096	-0.161873
O	6.97995	-2.62039	-0.434058
N	7.86561	-0.812062	0.709731
C	7.89834	0.510886	1.1071
H	8.57036	-1.46613	1.0277
N	8.9058	0.905613	1.93869
H	9.62008	0.28242	2.27214
H	8.92062	1.87081	2.22279
N	6.99736	1.40369	0.716321
C	6.0432	0.88607	-0.111154
C	5.92055	-0.430957	-0.571266
N	4.80524	-0.554723	-1.40294
C	4.27042	0.654038	-1.44288
N	4.9889	1.57139	-0.670244
H	3.38809	0.931902	-1.99428
H	4.79225	2.54993	-0.53385
