29
  This energy is -0.00266885 and Call times are: 356
C	0.452701	-1.12108	0.174206
N	0.647635	-2.5203	0.2408
H	-0.09693	-3.16168	-0.0684994
H	1.53181	-2.91158	0.597531
N	-0.7205	-0.622876	-0.299377
C	-0.932854	0.717358	-0.373608
O	-1.99198	1.14001	-0.801406
N	0.0449755	1.59198	0.0329596
C	1.2295	1.12774	0.51147
H	-0.117701	2.62287	-0.023879
C	1.45849	-0.244729	0.592189
H	1.99576	1.82309	0.830168
H	2.40046	-0.619336	0.972673
C	7.01531	-1.16404	-0.763881
O	6.43314	-2.08157	-1.3685
N	8.45908	-1.1527	-0.739627
C	9.25213	-0.208958	-0.115459
H	8.8742	-1.92863	-1.24081
N	10.6065	-0.356029	-0.195068
H	11.0499	-1.11367	-0.684055
H	11.1754	0.336067	0.263143
N	8.75364	0.82415	0.552185
C	7.38916	0.858967	0.559278
C	6.49865	-0.0417742	-0.0381913
N	5.17859	0.347611	0.200028
C	5.27086	1.45223	0.921161
N	6.6002	1.80777	1.16847
H	4.44159	2.03217	1.28959
H	6.93955	2.60055	1.68919
