29
  This energy is -0.0006589 and Call times are: 7601
C	1.15233	-0.224605	-0.337334
N	2.51929	-0.118714	-0.684417
H	2.98529	0.800092	-0.676943
H	3.06132	-0.954938	-0.947212
N	0.453058	0.889614	0.00679402
C	-0.861211	0.814944	0.344362
O	-1.46673	1.82682	0.649072
N	-1.50391	-0.398874	0.341594
C	-0.834717	-1.53242	0.00268153
H	-2.51469	-0.456999	0.601125
C	0.513378	-1.46798	-0.345313
H	-1.34782	-2.48581	0.00269924
H	1.05069	-2.36821	-0.616027
C	11.7803	0.511217	-1.01013
O	11.0731	0.772825	-1.99893
N	11.6848	1.356	0.157095
C	12.3982	1.20159	1.33033
H	11.0204	2.11282	0.0504884
N	12.1801	2.09818	2.33576
H	11.5285	2.85963	2.26229
H	12.7048	1.97754	3.18589
N	13.2786	0.225872	1.51587
C	13.4064	-0.60249	0.438577
C	12.7351	-0.534004	-0.788595
N	13.1489	-1.57012	-1.62892
C	14.0448	-2.24428	-0.927819
N	14.2389	-1.69408	0.342752
H	14.579	-3.11632	-1.26541
H	14.862	-2.01669	1.06552
