29
  This energy is 0.0060253 and Call times are: 6837
C	0.0467836	-0.970432	0.740393
N	0.423126	-1.94172	1.69707
H	1.31209	-1.84638	2.20899
H	-0.184435	-2.75115	1.89156
N	0.86109	0.0909531	0.496964
C	0.522642	1.03791	-0.417125
O	1.26831	1.97973	-0.618006
N	-0.657373	0.932158	-1.11196
C	-1.4946	-0.116061	-0.893166
H	-0.918274	1.66012	-1.81512
C	-1.15792	-1.09327	0.0418877
H	-2.42317	-0.192918	-1.4446
H	-1.8216	-1.93012	0.219652
C	7.07153	1.14315	-0.366476
O	6.20264	1.96073	-0.7171
N	8.37765	1.63273	0.00708944
C	9.44653	0.85936	0.417657
H	8.46091	2.64004	-0.0558722
N	10.6128	1.49374	0.733269
H	10.7284	2.4906	0.68162
H	11.3855	0.921793	1.03065
N	9.38444	-0.462801	0.51562
C	8.16727	-0.976318	0.172309
C	7.02655	-0.284547	-0.253763
N	5.98217	-1.17657	-0.507696
C	6.47959	-2.37275	-0.242226
N	7.81161	-2.30571	0.177245
H	5.94933	-3.30609	-0.32849
H	8.41487	-3.06918	0.437983
