29
  This energy is -0.00156294 and Call times are: 6485
C	0.0887162	0.87088	-0.851942
N	0.025103	2.08287	-1.57809
H	-0.396935	2.92018	-1.15122
H	0.398181	2.14148	-2.537
N	-0.408609	0.812298	0.412228
C	-0.359759	-0.339938	1.13111
O	-0.81173	-0.368059	2.26174
N	0.198042	-1.4691	0.583139
C	0.704473	-1.44535	-0.678033
H	0.235936	-2.3556	1.1355
C	0.659875	-0.269303	-1.42471
H	1.14268	-2.3393	-1.10354
H	1.062	-0.245471	-2.42977
C	7.25509	-0.0810794	-0.0601076
O	8.47459	-0.0125956	-0.293467
N	6.80378	-0.876852	1.05715
C	5.49044	-1.05478	1.44786
H	7.5598	-1.32082	1.564
N	5.24608	-1.84511	2.53322
H	5.97276	-2.29965	3.0577
H	4.28645	-1.96889	2.80949
N	4.46754	-0.49351	0.815238
C	4.84211	0.270962	-0.251697
C	6.13628	0.514805	-0.728123
N	6.09465	1.35295	-1.84469
C	4.81109	1.60709	-2.03605
N	4.0033	0.96973	-1.0895
H	4.40369	2.22617	-2.81741
H	2.99917	1.00101	-1.01496
