29
  This energy is 0.0018613 and Call times are: 1729
C	0.442852	-0.828342	0.780923
N	1.185	-1.85869	1.40371
H	1.95198	-2.3231	0.896292
H	0.967907	-2.15466	2.36673
N	0.743569	-0.451005	-0.490327
C	0.0458298	0.536141	-1.11124
O	0.333631	0.856868	-2.25041
N	-0.980928	1.16975	-0.454947
C	-1.30787	0.81727	0.816452
H	-1.51795	1.92905	-0.931914
C	-0.599258	-0.193729	1.46326
H	-2.11848	1.32111	1.32763
H	-0.855998	-0.478025	2.47601
C	7.78009	-0.270027	-1.42835
O	7.79657	-0.305768	-2.67124
N	7.1132	-1.33059	-0.710261
C	7.00609	-1.4373	0.663167
H	6.70628	-2.03134	-1.31768
N	6.33664	-2.51199	1.17229
H	5.92168	-3.22439	0.597786
H	6.26364	-2.58042	2.17355
N	7.52289	-0.544525	1.49829
C	8.16555	0.481137	0.867358
C	8.32987	0.681525	-0.508923
N	9.0502	1.85408	-0.748066
C	9.31261	2.34682	0.450715
N	8.79391	1.54555	1.47231
H	9.85766	3.25382	0.650784
H	8.8555	1.69746	2.46626
