29
  This energy is -0.00262523 and Call times are: 9044
C	-1.1515	-0.385378	0.132832
N	-2.44949	-0.907697	-0.0737093
H	-2.73084	-1.2402	-1.00736
H	-3.1245	-0.961142	0.703232
N	-0.274179	-0.322668	-0.90412
C	0.978732	0.174773	-0.73208
O	1.74702	0.220831	-1.67601
N	1.37647	0.624068	0.503378
C	0.524614	0.575826	1.56149
H	2.33995	1.00676	0.636375
C	-0.762766	0.0677152	1.39691
H	0.845014	0.931791	2.53251
H	-1.44494	0.0272487	2.2368
C	9.92105	-0.556441	-1.16942
O	10.684	-1.00777	-2.04152
N	8.50824	-0.47286	-1.45609
C	7.53374	0.00191142	-0.599289
H	8.26696	-0.805723	-2.3816
N	6.24179	0.00856365	-1.03877
H	5.969	-0.314446	-1.95036
H	5.53959	0.35666	-0.407675
N	7.80203	0.447762	0.621694
C	9.12761	0.389941	0.941958
C	10.1882	-0.0706285	0.15182
N	11.3953	0.035749	0.84641
C	11.0714	0.546385	2.02243
N	9.69749	0.781325	2.13186
H	11.7587	0.766892	2.82162
H	9.19817	1.16261	2.91932
