 Entering Gaussian System, Link 0=g09
 Input=chooh-pair-s-4.gjf
 Output=chooh-pair-s-4.log
 Initial command:
 /usr/g09/l1.exe /scratch/litao/gaussian/Gau-18330.inp -scrdir=/scratch/litao/gaussian/
 Entering Link 1 = /usr/g09/l1.exe PID=     18331.
  
 Copyright (c) 1988,1990,1992,1993,1995,1998,2003,2009, Gaussian, Inc.
                  All Rights Reserved.
  
 This is part of the Gaussian(R) 09 program.  It is based on
 the Gaussian(R) 03 system (copyright 2003, Gaussian, Inc.),
 the Gaussian(R) 98 system (copyright 1998, Gaussian, Inc.),
 the Gaussian(R) 94 system (copyright 1995, Gaussian, Inc.),
 the Gaussian 92(TM) system (copyright 1992, Gaussian, Inc.),
 the Gaussian 90(TM) system (copyright 1990, Gaussian, Inc.),
 the Gaussian 88(TM) system (copyright 1988, Gaussian, Inc.),
 the Gaussian 86(TM) system (copyright 1986, Carnegie Mellon
 University), and the Gaussian 82(TM) system (copyright 1983,
 Carnegie Mellon University). Gaussian is a federally registered
 trademark of Gaussian, Inc.
  
 This software contains proprietary and confidential information,
 including trade secrets, belonging to Gaussian, Inc.
  
 This software is provided under written license and may be
 used, copied, transmitted, or stored only in accord with that
 written license.
  
 The following legend is applicable only to US Government
 contracts under FAR:
  
                    RESTRICTED RIGHTS LEGEND
  
 Use, reproduction and disclosure by the US Government is
 subject to restrictions as set forth in subparagraphs (a)
 and (c) of the Commercial Computer Software - Restricted
 Rights clause in FAR 52.227-19.
  
 Gaussian, Inc.
 340 Quinnipiac St., Bldg. 40, Wallingford CT 06492
  
  
 ---------------------------------------------------------------
 Warning -- This program may not be used in any manner that
 competes with the business of Gaussian, Inc. or will provide
 assistance to any competitor of Gaussian, Inc.  The licensee
 of this program is prohibited from giving any competitor of
 Gaussian, Inc. access to this program.  By using this program,
 the user acknowledges that Gaussian, Inc. is engaged in the
 business of creating and licensing software in the field of
 computational chemistry and represents and warrants to the
 licensee that it is not a competitor of Gaussian, Inc. and that
 it will not use this program in any manner prohibited above.
 ---------------------------------------------------------------
  

 Cite this work as:
 Gaussian 09, Revision A.01,
 M. J. Frisch, G. W. Trucks, H. B. Schlegel, G. E. Scuseria, 
 M. A. Robb, J. R. Cheeseman, G. Scalmani, V. Barone, B. Mennucci, 
 G. A. Petersson, H. Nakatsuji, M. Caricato, X. Li, H. P. Hratchian, 
 A. F. Izmaylov, J. Bloino, G. Zheng, J. L. Sonnenberg, M. Hada, 
 M. Ehara, K. Toyota, R. Fukuda, J. Hasegawa, M. Ishida, T. Nakajima, 
 Y. Honda, O. Kitao, H. Nakai, T. Vreven, J. A. Montgomery, Jr., 
 J. E. Peralta, F. Ogliaro, M. Bearpark, J. J. Heyd, E. Brothers, 
 K. N. Kudin, V. N. Staroverov, R. Kobayashi, J. Normand, 
 K. Raghavachari, A. Rendell, J. C. Burant, S. S. Iyengar, J. Tomasi, 
 M. Cossi, N. Rega, J. M. Millam, M. Klene, J. E. Knox, J. B. Cross, 
 V. Bakken, C. Adamo, J. Jaramillo, R. Gomperts, R. E. Stratmann, 
 O. Yazyev, A. J. Austin, R. Cammi, C. Pomelli, J. W. Ochterski, 
 R. L. Martin, K. Morokuma, V. G. Zakrzewski, G. A. Voth, 
 P. Salvador, J. J. Dannenberg, S. Dapprich, A. D. Daniels, 
 O. Farkas, J. B. Foresman, J. V. Ortiz, J. Cioslowski, 
 and D. J. Fox, Gaussian, Inc., Wallingford CT, 2009.
 
 ******************************************
 Gaussian 09:  EM64L-G09RevA.01  8-May-2009
                10-May-2015 
 ******************************************
 %nprocshared=8
 Will use up to    8 processors via shared memory.
 %mem=8GB
 %chk=chooh-pair-s-4.chk
 ----------------
 #opt b3lyp/6-31g
 ----------------
 1/14=-1,18=20,19=15,26=3,38=1/1,3;
 2/9=110,12=2,17=6,18=5,40=1/2;
 3/5=1,6=6,11=2,16=1,25=1,30=1,71=1,74=-5/1,2,3;
 4//1;
 5/5=2,38=5/2;
 6/7=2,8=2,9=2,10=2,28=1/1;
 7//1,2,3,16;
 1/14=-1,18=20,19=15/3(2);
 2/9=110/2;
 99//99;
 2/9=110/2;
 3/5=1,6=6,11=2,16=1,25=1,30=1,71=1,74=-5/1,2,3;
 4/5=5,16=3/1;
 5/5=2,38=5/2;
 7//1,2,3,16;
 1/14=-1,18=20,19=15/3(-5);
 2/9=110/2;
 6/7=2,8=2,9=2,10=2,19=2,28=1/1;
 99/9=1/99;
 -------------------
 Title Card Required
 -------------------
 Symbolic Z-matrix:
 Charge =  0 Multiplicity = 1
 C                    -0.86044  -0.13954   0.63092 
 O                     0.19831  -0.0828   -0.06263 
 O                    -1.81554   0.76697   0.60997 
 H                    -1.03258  -0.97879   1.3038 
 H                    -1.66022   1.56037  -0.02251 
 C                    -0.23826   2.78314  -1.73672 
 O                    -1.27553   2.71231  -1.04325 
 O                     0.75286   1.89445  -1.74708 
 H                    -0.05642   3.61423  -2.41669 
 H                     0.61028   1.10629  -1.12085 
 C                     1.23422  -3.01403   1.26869 
 O                     0.13702  -2.79439   1.79969 
 O                     1.83794  -2.21923   0.36084 
 H                     1.84565  -3.89288   1.48144 
 H                     1.29759  -1.39971   0.14392 
 C                     4.15625   0.32782  -0.18058 
 O                     3.47986   0.72419   0.75493 
 O                     4.09636  -0.94413  -0.57311 
 H                     4.81569   1.02255  -0.69942 
 H                     3.48466  -1.4352   -0.03604 
 

 GradGradGradGradGradGradGradGradGradGradGradGradGradGradGradGradGradGrad
 Berny optimization.
 Initialization pass.
                           ----------------------------
                           !    Initial Parameters    !
                           ! (Angstroms and Degrees)  !
 --------------------------                            --------------------------
 ! Name  Definition              Value          Derivative Info.                !
 --------------------------------------------------------------------------------
 ! R1    R(1,2)                  1.267          estimate D2E/DX2                !
 ! R2    R(1,3)                  1.317          estimate D2E/DX2                !
 ! R3    R(1,4)                  1.0894         estimate D2E/DX2                !
 ! R4    R(2,10)                 1.6442         estimate D2E/DX2                !
 ! R5    R(2,15)                 1.7278         estimate D2E/DX2                !
 ! R6    R(3,5)                  1.0265         estimate D2E/DX2                !
 ! R7    R(4,12)                 2.2159         estimate D2E/DX2                !
 ! R8    R(5,7)                  1.5865         estimate D2E/DX2                !
 ! R9    R(6,7)                  1.2497         estimate D2E/DX2                !
 ! R10   R(6,8)                  1.3312         estimate D2E/DX2                !
 ! R11   R(6,9)                  1.0891         estimate D2E/DX2                !
 ! R12   R(8,10)                 1.0167         estimate D2E/DX2                !
 ! R13   R(11,12)                1.2386         estimate D2E/DX2                !
 ! R14   R(11,13)                1.3492         estimate D2E/DX2                !
 ! R15   R(11,14)                1.0916         estimate D2E/DX2                !
 ! R16   R(13,15)                1.0053         estimate D2E/DX2                !
 ! R17   R(13,20)                1.8665         estimate D2E/DX2                !
 ! R18   R(16,17)                1.2206         estimate D2E/DX2                !
 ! R19   R(16,18)                1.3325         estimate D2E/DX2                !
 ! R20   R(16,19)                1.0894         estimate D2E/DX2                !
 ! R21   R(18,20)                0.9507         estimate D2E/DX2                !
 ! A1    A(2,1,3)              124.5073         estimate D2E/DX2                !
 ! A2    A(2,1,4)              120.3096         estimate D2E/DX2                !
 ! A3    A(3,1,4)              115.1831         estimate D2E/DX2                !
 ! A4    A(1,2,10)             126.4468         estimate D2E/DX2                !
 ! A5    A(1,2,15)             115.6007         estimate D2E/DX2                !
 ! A6    A(10,2,15)            117.9524         estimate D2E/DX2                !
 ! A7    A(1,3,5)              115.6011         estimate D2E/DX2                !
 ! A8    A(1,4,12)             133.3178         estimate D2E/DX2                !
 ! A9    A(3,5,7)              173.9207         estimate D2E/DX2                !
 ! A10   A(7,6,8)              125.7619         estimate D2E/DX2                !
 ! A11   A(7,6,9)              121.8886         estimate D2E/DX2                !
 ! A12   A(8,6,9)              112.3495         estimate D2E/DX2                !
 ! A13   A(5,7,6)              126.8292         estimate D2E/DX2                !
 ! A14   A(6,8,10)             114.0981         estimate D2E/DX2                !
 ! A15   A(2,10,8)             172.8301         estimate D2E/DX2                !
 ! A16   A(12,11,13)           125.4786         estimate D2E/DX2                !
 ! A17   A(12,11,14)           123.7404         estimate D2E/DX2                !
 ! A18   A(13,11,14)           110.781          estimate D2E/DX2                !
 ! A19   A(4,12,11)            121.1265         estimate D2E/DX2                !
 ! A20   A(11,13,15)           112.6373         estimate D2E/DX2                !
 ! A21   A(11,13,20)           141.7471         estimate D2E/DX2                !
 ! A22   A(15,13,20)            94.9278         estimate D2E/DX2                !
 ! A23   A(2,15,13)            171.5294         estimate D2E/DX2                !
 ! A24   A(17,16,18)           120.7215         estimate D2E/DX2                !
 ! A25   A(17,16,19)           119.5644         estimate D2E/DX2                !
 ! A26   A(18,16,19)           119.714          estimate D2E/DX2                !
 ! A27   A(16,18,20)           110.8292         estimate D2E/DX2                !
 ! A28   A(13,20,18)           154.7924         estimate D2E/DX2                !
 ! D1    D(3,1,2,10)            -0.0139         estimate D2E/DX2                !
 ! D2    D(3,1,2,15)          -179.939          estimate D2E/DX2                !
 ! D3    D(4,1,2,10)           179.9737         estimate D2E/DX2                !
 ! D4    D(4,1,2,15)             0.0486         estimate D2E/DX2                !
 ! D5    D(2,1,3,5)              0.0311         estimate D2E/DX2                !
 ! D6    D(4,1,3,5)           -179.9571         estimate D2E/DX2                !
 ! D7    D(2,1,4,12)            -0.1433         estimate D2E/DX2                !
 ! D8    D(3,1,4,12)           179.8454         estimate D2E/DX2                !
 ! D9    D(1,2,10,8)            -1.8523         estimate D2E/DX2                !
 ! D10   D(15,2,10,8)          178.0712         estimate D2E/DX2                !
 ! D11   D(1,2,15,13)            0.1685         estimate D2E/DX2                !
 ! D12   D(10,2,15,13)        -179.7633         estimate D2E/DX2                !
 ! D13   D(1,3,5,7)              0.9618         estimate D2E/DX2                !
 ! D14   D(1,4,12,11)            0.1549         estimate D2E/DX2                !
 ! D15   D(3,5,7,6)             -0.9086         estimate D2E/DX2                !
 ! D16   D(8,6,7,5)             -0.138          estimate D2E/DX2                !
 ! D17   D(9,6,7,5)            179.8594         estimate D2E/DX2                !
 ! D18   D(7,6,8,10)            -0.0006         estimate D2E/DX2                !
 ! D19   D(9,6,8,10)          -179.9982         estimate D2E/DX2                !
 ! D20   D(6,8,10,2)             1.8486         estimate D2E/DX2                !
 ! D21   D(13,11,12,4)          -0.0321         estimate D2E/DX2                !
 ! D22   D(14,11,12,4)         179.9667         estimate D2E/DX2                !
 ! D23   D(12,11,13,15)         -0.0054         estimate D2E/DX2                !
 ! D24   D(12,11,13,20)        132.7804         estimate D2E/DX2                !
 ! D25   D(14,11,13,15)        179.9956         estimate D2E/DX2                !
 ! D26   D(14,11,13,20)        -47.2185         estimate D2E/DX2                !
 ! D27   D(11,13,15,2)          -0.1379         estimate D2E/DX2                !
 ! D28   D(20,13,15,2)        -153.0043         estimate D2E/DX2                !
 ! D29   D(11,13,20,18)        173.2065         estimate D2E/DX2                !
 ! D30   D(15,13,20,18)        -49.6271         estimate D2E/DX2                !
 ! D31   D(17,16,18,20)         -0.0002         estimate D2E/DX2                !
 ! D32   D(19,16,18,20)        179.9995         estimate D2E/DX2                !
 ! D33   D(16,18,20,13)         98.125          estimate D2E/DX2                !
 --------------------------------------------------------------------------------
 Trust Radius=3.00D-01 FncErr=1.00D-07 GrdErr=1.00D-06
 Number of steps in this run=  92 maximum allowed number of steps= 120.
 GradGradGradGradGradGradGradGradGradGradGradGradGradGradGradGradGradGrad

                          Input orientation:                          
 ---------------------------------------------------------------------
 Center     Atomic      Atomic             Coordinates (Angstroms)
 Number     Number       Type             X           Y           Z
 ---------------------------------------------------------------------
      1          6           0       -0.860442   -0.139541    0.630919
      2          8           0        0.198313   -0.082802   -0.062631
      3          8           0       -1.815540    0.766969    0.609971
      4          1           0       -1.032580   -0.978786    1.303800
      5          1           0       -1.660220    1.560370   -0.022506
      6          6           0       -0.238258    2.783140   -1.736720
      7          8           0       -1.275530    2.712310   -1.043250
      8          8           0        0.752860    1.894450   -1.747080
      9          1           0       -0.056418    3.614230   -2.416690
     10          1           0        0.610277    1.106290   -1.120850
     11          6           0        1.234220   -3.014030    1.268690
     12          8           0        0.137015   -2.794390    1.799690
     13          8           0        1.837940   -2.219230    0.360841
     14          1           0        1.845650   -3.892880    1.481440
     15          1           0        1.297590   -1.399710    0.143923
     16          6           0        4.156250    0.327818   -0.180580
     17          8           0        3.479860    0.724189    0.754926
     18          8           0        4.096360   -0.944129   -0.573108
     19          1           0        4.815690    1.022550   -0.699422
     20          1           0        3.484660   -1.435200   -0.036038
 ---------------------------------------------------------------------
                    Distance matrix (angstroms):
                    1          2          3          4          5
     1  C    0.000000
     2  O    1.266962   0.000000
     3  O    1.316971   2.286943   0.000000
     4  H    1.089373   2.045731   2.035211   0.000000
     5  H    1.989047   2.481083   1.026468   2.932632   0.000000
     6  C    3.812465   3.347655   3.472711   4.901816   2.540801
     7  O    3.332896   3.308547   2.609426   4.380851   1.586465
     8  O    3.520617   2.656016   3.663821   4.555343   2.984748
     9  H    4.901548   4.390277   4.512436   5.990888   3.538734
    10  H    2.604574   1.644227   2.999245   3.595198   2.562753
    11  C    3.613454   3.381954   4.902132   3.046610   5.565079
    12  O    3.067437   3.290092   4.232160   2.215915   5.051177
    13  O    3.417501   2.726175   4.725184   3.266153   5.164248
    14  H    4.704665   4.428833   5.989822   4.099720   6.655142
    15  H    2.546035   1.727808   3.821423   2.636699   4.187889
    16  C    5.103347   3.980928   6.039876   5.552887   5.947730
    17  O    4.427147   3.476807   5.297556   4.854225   5.265361
    18  O    5.164003   4.024580   6.267224   5.461686   6.301896
    19  H    5.944639   4.790353   6.764100   6.497731   6.533366
    20  H    4.582955   3.553838   5.775725   4.733808   5.953437
                    6          7          8          9         10
     6  C    0.000000
     7  O    1.249740   0.000000
     8  O    1.331237   2.297529   0.000000
     9  H    1.089098   2.045979   2.015180   0.000000
    10  H    1.977659   2.478223   1.016706   2.900594   0.000000
    11  C    6.693867   6.665949   5.780982   7.692958   4.803774
    12  O    6.614822   6.356205   5.911350   7.673701   4.895798
    13  O    5.808103   5.998771   4.747957   6.732943   3.842089
    14  H    7.698602   7.729448   6.716451   8.670062   5.769728
    15  H    4.836515   4.993900   3.837201   5.790481   2.889998
    16  C    5.268954   5.994517   4.060951   5.792000   3.750207
    17  O    4.926660   5.458919   3.881504   5.560283   3.449499
    18  O    5.833990   6.515196   4.540345   6.436070   4.081301
    19  H    5.451427   6.330598   4.285369   5.779555   4.227306
    20  H    5.877655   6.393413   4.634325   6.610861   3.987238
                   11         12         13         14         15
    11  C    0.000000
    12  O    1.238572   0.000000
    13  O    1.349213   2.300922   0.000000
    14  H    1.091552   2.056063   2.014176   0.000000
    15  H    1.968539   2.456345   1.005308   2.881878   0.000000
    16  C    4.669753   5.461126   3.486424   5.090724   3.355830
    17  O    4.391029   4.964528   3.393364   4.951342   3.105893
    18  O    3.983536   4.972932   2.756557   4.240518   2.924859
    19  H    5.744073   6.534875   4.527725   6.143187   4.353803
    20  H    3.042942   4.052656   1.866521   3.321036   2.194748
                   16         17         18         19         20
    16  C    0.000000
    17  O    1.220567   0.000000
    18  O    1.332484   2.219692   0.000000
    19  H    1.089363   1.997145   2.097908   0.000000
    20  H    1.892131   2.299697   0.950669   2.872674   0.000000
 Stoichiometry    C4H8O8
 Framework group  C1[X(C4H8O8)]
 Deg. of freedom    54
 Full point group                 C1      NOp   1
 Largest Abelian subgroup         C1      NOp   1
 Largest concise Abelian subgroup C1      NOp   1
                         Standard orientation:                         
 ---------------------------------------------------------------------
 Center     Atomic      Atomic             Coordinates (Angstroms)
 Number     Number       Type             X           Y           Z
 ---------------------------------------------------------------------
      1          6           0       -0.842132   -1.746768    0.250876
      2          8           0       -0.440087   -0.628842   -0.189344
      3          8           0       -2.097083   -2.030170    0.532287
      4          1           0       -0.134264   -2.556832    0.422492
      5          1           0       -2.769751   -1.271523    0.372259
      6          6           0       -3.300604    1.101293   -0.365042
      7          8           0       -3.679182   -0.006912    0.071321
      8          8           0       -2.045877    1.433600   -0.660715
      9          1           0       -3.998678    1.917564   -0.545400
     10          1           0       -1.371071    0.689865   -0.502014
     11          6           0        2.734000   -1.793772   -0.264989
     12          8           0        2.058013   -2.741587    0.157799
     13          8           0        2.253611   -0.579981   -0.606035
     14          1           0        3.814858   -1.837510   -0.411006
     15          1           0        1.258501   -0.508903   -0.482149
     16          6           0        1.658701    2.698624    0.419628
     17          8           0        1.233586    2.010656    1.333828
     18          8           0        2.432428    2.169648   -0.527496
     19          1           0        1.402010    3.756523    0.378751
     20          1           0        2.575335    1.243253   -0.368936
 ---------------------------------------------------------------------
 Rotational constants (GHZ):      0.7923049      0.5075386      0.3331029
 Standard basis: 6-31G (6D, 7F)
 There are   124 symmetry adapted basis functions of A   symmetry.
 Integral buffers will be    131072 words long.
 Raffenetti 2 integral format.
 Two-electron integral symmetry is turned on.
   124 basis functions,   296 primitive gaussians,   124 cartesian basis functions
    48 alpha electrons       48 beta electrons
       nuclear repulsion energy       713.3926659332 Hartrees.
 NAtoms=   20 NActive=   20 NUniq=   20 SFac= 7.50D-01 NAtFMM=   80 NAOKFM=F Big=F
 One-electron integrals computed using PRISM.
 NBasis=   124 RedAO= T  NBF=   124
 NBsUse=   124 1.00D-06 NBFU=   124
 Harris functional with IExCor=  402 diagonalized for initial guess.
 ExpMin= 1.61D-01 ExpMax= 5.48D+03 ExpMxC= 8.25D+02 IAcc=1 IRadAn=         1 AccDes= 0.00D+00
 HarFok:  IExCor=  402 AccDes= 0.00D+00 IRadAn=         1 IDoV= 1
 ScaDFX=  1.000000  1.000000  1.000000  1.000000
 FoFCou: FMM=F IPFlag=           0 FMFlag=      100000 FMFlg1=           0
         NFxFlg=           0 DoJE=T BraDBF=F KetDBF=T FulRan=T
         Omega=  0.000000  0.000000  1.000000  0.000000  0.000000 ICntrl=     500 IOpCl=  0
         NMat0=    1 NMatS0=    1 NMatT0=    0 NMatD0=    1 NMtDS0=    0 NMtDT0=    0
         I1Cent=           4 NGrid=           0.
 Petite list used in FoFCou.
 Initial guess orbital symmetries:
       Occupied  (A) (A) (A) (A) (A) (A) (A) (A) (A) (A) (A) (A)
                 (A) (A) (A) (A) (A) (A) (A) (A) (A) (A) (A) (A)
                 (A) (A) (A) (A) (A) (A) (A) (A) (A) (A) (A) (A)
                 (A) (A) (A) (A) (A) (A) (A) (A) (A) (A) (A) (A)
       Virtual   (A) (A) (A) (A) (A) (A) (A) (A) (A) (A) (A) (A)
                 (A) (A) (A) (A) (A) (A) (A) (A) (A) (A) (A) (A)
                 (A) (A) (A) (A) (A) (A) (A) (A) (A) (A) (A) (A)
                 (A) (A) (A) (A) (A) (A) (A) (A) (A) (A) (A) (A)
                 (A) (A) (A) (A) (A) (A) (A) (A) (A) (A) (A) (A)
                 (A) (A) (A) (A) (A) (A) (A) (A) (A) (A) (A) (A)
                 (A) (A) (A) (A)
 The electronic state of the initial guess is 1-A.
 Requested convergence on RMS density matrix=1.00D-08 within 128 cycles.
 Requested convergence on MAX density matrix=1.00D-06.
 Requested convergence on             energy=1.00D-06.
 No special actions if energy rises.
 Keep R1 ints in memory in canonical form, NReq=31248126.
 Integral accuracy reduced to 1.0D-05 until final iterations.
 Initial convergence to 1.0D-05 achieved.  Increase integral accuracy.
 SCF Done:  E(RB3LYP) =  -758.807758684     A.U. after   15 cycles
             Convg  =    0.7042D-08             -V/T =  2.0054

 **********************************************************************

            Population analysis using the SCF density.

 **********************************************************************

 Orbital symmetries:
       Occupied  (A) (A) (A) (A) (A) (A) (A) (A) (A) (A) (A) (A)
                 (A) (A) (A) (A) (A) (A) (A) (A) (A) (A) (A) (A)
                 (A) (A) (A) (A) (A) (A) (A) (A) (A) (A) (A) (A)
                 (A) (A) (A) (A) (A) (A) (A) (A) (A) (A) (A) (A)
       Virtual   (A) (A) (A) (A) (A) (A) (A) (A) (A) (A) (A) (A)
                 (A) (A) (A) (A) (A) (A) (A) (A) (A) (A) (A) (A)
                 (A) (A) (A) (A) (A) (A) (A) (A) (A) (A) (A) (A)
                 (A) (A) (A) (A) (A) (A) (A) (A) (A) (A) (A) (A)
                 (A) (A) (A) (A) (A) (A) (A) (A) (A) (A) (A) (A)
                 (A) (A) (A) (A) (A) (A) (A) (A) (A) (A) (A) (A)
                 (A) (A) (A) (A)
 The electronic state is 1-A.
 Alpha  occ. eigenvalues --  -19.22291 -19.21815 -19.21737 -19.20738 -19.19311
 Alpha  occ. eigenvalues --  -19.18803 -19.17685 -19.14397 -10.37204 -10.36802
 Alpha  occ. eigenvalues --  -10.35466 -10.32692  -1.15882  -1.14457  -1.13886
 Alpha  occ. eigenvalues --   -1.13201  -1.07216  -1.05712  -1.05192  -1.03198
 Alpha  occ. eigenvalues --   -0.71334  -0.69317  -0.68127  -0.66905  -0.59206
 Alpha  occ. eigenvalues --   -0.55317  -0.55218  -0.54110  -0.52933  -0.50954
 Alpha  occ. eigenvalues --   -0.49855  -0.48376  -0.47296  -0.47058  -0.46409
 Alpha  occ. eigenvalues --   -0.44848  -0.43684  -0.41670  -0.38859  -0.37841
 Alpha  occ. eigenvalues --   -0.36248  -0.34841  -0.34348  -0.34265  -0.32406
 Alpha  occ. eigenvalues --   -0.31718  -0.30739  -0.27855
 Alpha virt. eigenvalues --   -0.05596  -0.04547  -0.03524  -0.00571   0.08350
 Alpha virt. eigenvalues --    0.10046   0.11248   0.12342   0.13053   0.14703
 Alpha virt. eigenvalues --    0.16216   0.18962   0.23393   0.23919   0.25257
 Alpha virt. eigenvalues --    0.25766   0.27404   0.29136   0.30237   0.34782
 Alpha virt. eigenvalues --    0.47226   0.49012   0.49827   0.50456   0.50876
 Alpha virt. eigenvalues --    0.52700   0.55898   0.56984   0.58165   0.62255
 Alpha virt. eigenvalues --    0.65183   0.67355   0.68919   0.70628   0.71961
 Alpha virt. eigenvalues --    0.74467   0.78160   0.79336   0.79893   0.81870
 Alpha virt. eigenvalues --    0.83895   0.84778   0.85347   0.86331   0.88160
 Alpha virt. eigenvalues --    0.88844   0.90827   0.93269   0.94628   0.95109
 Alpha virt. eigenvalues --    0.97081   0.98797   1.00355   1.02088   1.02678
 Alpha virt. eigenvalues --    1.07274   1.11832   1.13345   1.15182   1.16935
 Alpha virt. eigenvalues --    1.21350   1.24697   1.25382   1.27396   1.29043
 Alpha virt. eigenvalues --    1.29864   1.39460   1.50540   1.61285   1.63867
 Alpha virt. eigenvalues --    1.67803   1.68563   1.75129   1.78300   1.87286
 Alpha virt. eigenvalues --    1.93956
          Condensed to atoms (all electrons):
              1          2          3          4          5          6
     1  C    4.699250   0.309460   0.247507   0.357106  -0.016540   0.001537
     2  O    0.309460   8.293418  -0.084299  -0.062346   0.003386   0.001716
     3  O    0.247507  -0.084299   8.262717  -0.058488   0.188987   0.001824
     4  H    0.357106  -0.062346  -0.058488   0.497059   0.002580   0.000018
     5  H   -0.016540   0.003386   0.188987   0.002580   0.299760  -0.008295
     6  C    0.001537   0.001716   0.001824   0.000018  -0.008295   4.640366
     7  O    0.002358  -0.001204  -0.040429  -0.000049   0.092681   0.374993
     8  O    0.001122  -0.032510   0.000305  -0.000059  -0.000756   0.228808
     9  H    0.000017  -0.000069  -0.000086   0.000000   0.001052   0.379533
    10  H   -0.005313   0.075836  -0.000924   0.000748   0.002117  -0.016657
    11  C    0.001819   0.000414   0.000007  -0.001985   0.000001   0.000000
    12  O   -0.008243  -0.000705   0.000110   0.029773   0.000000   0.000000
    13  O   -0.000345  -0.023813  -0.000013   0.000294   0.000002   0.000000
    14  H   -0.000023  -0.000057   0.000000   0.000296   0.000000   0.000000
    15  H   -0.001944   0.063539   0.000414  -0.000302  -0.000008  -0.000005
    16  C    0.000005   0.000193   0.000000   0.000001   0.000000   0.000002
    17  O    0.000025   0.000037   0.000000   0.000000  -0.000001  -0.000007
    18  O   -0.000006  -0.000055   0.000000   0.000000   0.000000   0.000000
    19  H    0.000000   0.000000   0.000000   0.000000   0.000000   0.000000
    20  H    0.000011   0.000082   0.000000  -0.000006   0.000000   0.000000
              7          8          9         10         11         12
     1  C    0.002358   0.001122   0.000017  -0.005313   0.001819  -0.008243
     2  O   -0.001204  -0.032510  -0.000069   0.075836   0.000414  -0.000705
     3  O   -0.040429   0.000305  -0.000086  -0.000924   0.000007   0.000110
     4  H   -0.000049  -0.000059   0.000000   0.000748  -0.001985   0.029773
     5  H    0.092681  -0.000756   0.001052   0.002117   0.000001   0.000000
     6  C    0.374993   0.228808   0.379533  -0.016657   0.000000   0.000000
     7  O    8.186329  -0.085825  -0.062409   0.003212   0.000000   0.000000
     8  O   -0.085825   8.297787  -0.079729   0.198513   0.000000   0.000000
     9  H   -0.062409  -0.079729   0.571152   0.003698   0.000000   0.000000
    10  H    0.003212   0.198513   0.003698   0.302205  -0.000017  -0.000002
    11  C    0.000000   0.000000   0.000000  -0.000017   4.660079   0.452201
    12  O    0.000000   0.000000   0.000000  -0.000002   0.452201   8.076814
    13  O    0.000000  -0.000002   0.000000  -0.000008   0.149838  -0.086133
    14  H    0.000000   0.000000   0.000000   0.000000   0.369402  -0.059520
    15  H    0.000003  -0.000012   0.000000   0.000570  -0.009970   0.002184
    16  C    0.000000   0.000261   0.000000   0.000433   0.000055  -0.000002
    17  O    0.000000  -0.000073   0.000000   0.000870  -0.000009   0.000000
    18  O    0.000000  -0.000003   0.000000  -0.000038  -0.000135  -0.000003
    19  H    0.000000   0.000004   0.000000   0.000024   0.000000   0.000000
    20  H    0.000000   0.000000   0.000000  -0.000002   0.000778   0.000155
             13         14         15         16         17         18
     1  C   -0.000345  -0.000023  -0.001944   0.000005   0.000025  -0.000006
     2  O   -0.023813  -0.000057   0.063539   0.000193   0.000037  -0.000055
     3  O   -0.000013   0.000000   0.000414   0.000000   0.000000   0.000000
     4  H    0.000294   0.000296  -0.000302   0.000001   0.000000   0.000000
     5  H    0.000002   0.000000  -0.000008   0.000000  -0.000001   0.000000
     6  C    0.000000   0.000000  -0.000005   0.000002  -0.000007   0.000000
     7  O    0.000000   0.000000   0.000003   0.000000   0.000000   0.000000
     8  O   -0.000002   0.000000  -0.000012   0.000261  -0.000073  -0.000003
     9  H    0.000000   0.000000   0.000000   0.000000   0.000000   0.000000
    10  H   -0.000008   0.000000   0.000570   0.000433   0.000870  -0.000038
    11  C    0.149838   0.369402  -0.009970   0.000055  -0.000009  -0.000135
    12  O   -0.086133  -0.059520   0.002184  -0.000002   0.000000  -0.000003
    13  O    8.415570  -0.090690   0.192725   0.000052  -0.000649  -0.013271
    14  H   -0.090690   0.605705   0.004464   0.000004  -0.000004   0.000017
    15  H    0.192725   0.004464   0.302202   0.001461   0.002087   0.001391
    16  C    0.000052   0.000004   0.001461   4.677574   0.482131   0.165007
    17  O   -0.000649  -0.000004   0.002087   0.482131   8.107383  -0.115003
    18  O   -0.013271   0.000017   0.001391   0.165007  -0.115003   8.355132
    19  H   -0.000035   0.000000   0.000075   0.352141  -0.072113  -0.081149
    20  H    0.042671  -0.000426  -0.001832  -0.013797   0.008677   0.222178
             19         20
     1  C    0.000000   0.000011
     2  O    0.000000   0.000082
     3  O    0.000000   0.000000
     4  H    0.000000  -0.000006
     5  H    0.000000   0.000000
     6  C    0.000000   0.000000
     7  O    0.000000   0.000000
     8  O    0.000004   0.000000
     9  H    0.000000   0.000000
    10  H    0.000024  -0.000002
    11  C    0.000000   0.000778
    12  O    0.000000   0.000155
    13  O   -0.000035   0.042671
    14  H    0.000000  -0.000426
    15  H    0.000075  -0.001832
    16  C    0.352141  -0.013797
    17  O   -0.072113   0.008677
    18  O   -0.081149   0.222178
    19  H    0.634062   0.005834
    20  H    0.005834   0.324564
 Mulliken atomic charges:
              1
     1  C    0.412193
     2  O   -0.543026
     3  O   -0.517634
     4  H    0.235362
     5  H    0.435035
     6  C    0.396165
     7  O   -0.469659
     8  O   -0.527833
     9  H    0.186842
    10  H    0.434736
    11  C    0.377520
    12  O   -0.406629
    13  O   -0.586194
    14  H    0.170830
    15  H    0.442958
    16  C    0.334481
    17  O   -0.413354
    18  O   -0.534061
    19  H    0.161157
    20  H    0.411111
 Sum of Mulliken atomic charges =   0.00000
 Mulliken charges with hydrogens summed into heavy atoms:
              1
     1  C    0.647555
     2  O   -0.543026
     3  O   -0.082599
     6  C    0.583007
     7  O   -0.469659
     8  O   -0.093097
    11  C    0.548350
    12  O   -0.406629
    13  O   -0.143236
    16  C    0.495638
    17  O   -0.413354
    18  O   -0.122950
 Sum of Mulliken charges with hydrogens summed into heavy atoms =   0.00000
 Electronic spatial extent (au):  <R**2>=           3116.9678
 Charge=              0.0000 electrons
 Dipole moment (field-independent basis, Debye):
    X=             -0.3058    Y=              0.7890    Z=             -1.5388  Tot=              1.7561
 Quadrupole moment (field-independent basis, Debye-Ang):
   XX=            -63.4826   YY=            -72.1690   ZZ=            -73.6307
   XY=             -8.0205   XZ=              2.6409   YZ=              2.6229
 Traceless Quadrupole moment (field-independent basis, Debye-Ang):
   XX=              6.2782   YY=             -2.4082   ZZ=             -3.8699
   XY=             -8.0205   XZ=              2.6409   YZ=              2.6229
 Octapole moment (field-independent basis, Debye-Ang**2):
  XXX=             28.6203  YYY=             50.9356  ZZZ=             -4.9662  XYY=            -10.6928
  XXY=             15.5811  XXZ=             -8.4512  XZZ=             -7.8862  YZZ=            -11.4254
  YYZ=             -2.4535  XYZ=              8.1475
 Hexadecapole moment (field-independent basis, Debye-Ang**3):
 XXXX=          -2084.3757 YYYY=          -1380.8620 ZZZZ=           -188.4307 XXXY=           -194.7737
 XXXZ=             51.6823 YYYX=             47.5696 YYYZ=             40.6141 ZZZX=             -5.5749
 ZZZY=            -10.5773 XXYY=           -589.2137 XXZZ=           -399.3326 YYZZ=           -281.1795
 XXYZ=             29.2405 YYXZ=             12.2196 ZZXY=            -13.3971
 N-N= 7.133926659332D+02 E-N=-3.211132716595D+03  KE= 7.547170911424D+02
 Calling FoFJK, ICntrl=      2127 FMM=F ISym2X=0 I1Cent= 0 IOpClX= 0 NMat=1 NMatS=1 NMatT=0.
 ***** Axes restored to original set *****
 -------------------------------------------------------------------
 Center     Atomic                   Forces (Hartrees/Bohr)
 Number     Number              X              Y              Z
 -------------------------------------------------------------------
      1        6          -0.000241225    0.001276361    0.000217785
      2        8           0.000534115   -0.003364450   -0.000645712
      3        8           0.000538869   -0.001236717    0.000119012
      4        1          -0.000484326    0.000824126   -0.000012862
      5        1           0.000353833    0.000677958   -0.000118123
      6        6           0.000403129   -0.000014765    0.000383481
      7        8          -0.000251253   -0.000355265   -0.000048135
      8        8          -0.000397432   -0.000747986   -0.000396472
      9        1           0.000006525    0.000019568    0.000083187
     10        1           0.000884805    0.001210275    0.000628619
     11        6          -0.006739680   -0.007687869    0.010336940
     12        8           0.006464018   -0.000377979   -0.004873505
     13        8           0.003086766    0.006879644   -0.003497798
     14        1          -0.000140771    0.000127454    0.000139684
     15        1          -0.004827971    0.004450413   -0.000630387
     16        6          -0.000195620    0.014002441    0.006278159
     17        8          -0.017164981    0.017281905    0.024392217
     18        8           0.038350012    0.005743699   -0.039640649
     19        1           0.005255645   -0.012916472   -0.010866899
     20        1          -0.025434457   -0.025792342    0.018151459
 -------------------------------------------------------------------
 Cartesian Forces:  Max     0.039640649 RMS     0.010695733

 GradGradGradGradGradGradGradGradGradGradGradGradGradGradGradGradGradGrad
 Berny optimization.
 Internal  Forces:  Max     0.040545407 RMS     0.007756879
 Search for a local minimum.
 Step number   1 out of a maximum of   92
 All quantities printed in internal units (Hartrees-Bohrs-Radians)
 Mixed Optimization -- RFO/linear search
 Second derivative matrix not updated -- first step.
     Eigenvalues ---    0.00230   0.00401   0.00406   0.00461   0.00707
     Eigenvalues ---    0.01681   0.01740   0.01808   0.02228   0.02448
     Eigenvalues ---    0.02585   0.02585   0.02624   0.02802   0.03023
     Eigenvalues ---    0.03051   0.03215   0.03738   0.05417   0.07653
     Eigenvalues ---    0.08544   0.09758   0.13496   0.15893   0.16000
     Eigenvalues ---    0.16000   0.16000   0.16000   0.16000   0.18373
     Eigenvalues ---    0.19283   0.19748   0.20261   0.21245   0.21884
     Eigenvalues ---    0.22000   0.23598   0.25000   0.34410   0.34634
     Eigenvalues ---    0.34886   0.34917   0.42169   0.44383   0.45534
     Eigenvalues ---    0.54087   0.57530   0.58017   0.58923   0.61928
     Eigenvalues ---    0.72232   0.81894   0.85604   0.951321000.00000
     Eigenvalues --- 1000.000001000.000001000.000001000.000001000.00000
     Eigenvalues --- 1000.000001000.000001000.000001000.000001000.00000
     Eigenvalues --- 1000.000001000.000001000.000001000.000001000.00000
     Eigenvalues --- 1000.000001000.000001000.000001000.000001000.00000
     Eigenvalues --- 1000.000001000.000001000.000001000.000001000.00000
     Eigenvalues --- 1000.000001000.00000
 RFO step:  Lambda=-1.33162244D-02 EMin= 2.30000000D-03
 Linear search not attempted -- first point.
 Iteration  1 RMS(Cart)=  0.10543305 RMS(Int)=  0.00885808
 Iteration  2 RMS(Cart)=  0.02345229 RMS(Int)=  0.00051726
 Iteration  3 RMS(Cart)=  0.00072704 RMS(Int)=  0.00011821
 Iteration  4 RMS(Cart)=  0.00000077 RMS(Int)=  0.00011821
 Variable       Old X    -DE/DX   Delta X   Delta X   Delta X     New X
                                 (Linear)    (Quad)   (Total)
    R1        2.39421  -0.00078   0.00000  -0.00067  -0.00066   2.39355
    R2        2.48871  -0.00116   0.00000  -0.00183  -0.00183   2.48688
    R3        2.05862   0.00008   0.00000  -0.00074  -0.00075   2.05787
    R4        3.10714   0.00006   0.00000   0.00057   0.00057   3.10771
    R5        3.26508  -0.00361   0.00000  -0.03577  -0.03577   3.22932
    R6        1.93974   0.00041   0.00000   0.00093   0.00093   1.94067
    R7        4.18747   0.00138   0.00000   0.01726   0.01725   4.20472
    R8        2.99798  -0.00024   0.00000  -0.00214  -0.00215   2.99584
    R9        2.36167   0.00010   0.00000   0.00014   0.00013   2.36180
   R10        2.51567  -0.00023   0.00000  -0.00036  -0.00036   2.51531
   R11        2.05810  -0.00004   0.00000  -0.00010  -0.00010   2.05800
   R12        1.92129  -0.00065   0.00000  -0.00143  -0.00143   1.91987
   R13        2.34056  -0.00682   0.00000  -0.00812  -0.00813   2.33244
   R14        2.54964   0.00846   0.00000   0.01524   0.01524   2.56488
   R15        2.06273  -0.00015   0.00000  -0.00043  -0.00043   2.06231
   R16        1.89976   0.00281   0.00000   0.00714   0.00714   1.90690
   R17        3.52721   0.00037   0.00000   0.00542   0.00542   3.53263
   R18        2.30654   0.03382   0.00000   0.03506   0.03506   2.34160
   R19        2.51803   0.02282   0.00000   0.03788   0.03788   2.55591
   R20        2.05860   0.00012   0.00000   0.00033   0.00033   2.05893
   R21        1.79650   0.04055   0.00000   0.06888   0.06888   1.86539
    A1        2.17306   0.00006   0.00000   0.00055   0.00056   2.17362
    A2        2.09980  -0.00032   0.00000  -0.00247  -0.00248   2.09732
    A3        2.01032   0.00025   0.00000   0.00192   0.00191   2.01224
    A4        2.20691   0.00061   0.00000   0.00132   0.00125   2.20816
    A5        2.01761  -0.00031   0.00000   0.00267   0.00258   2.02019
    A6        2.05866  -0.00030   0.00000  -0.00397  -0.00407   2.05459
    A7        2.01762  -0.00029   0.00000  -0.00147  -0.00146   2.01616
    A8        2.32683   0.00052   0.00000  -0.00277  -0.00278   2.32406
    A9        3.03549  -0.00008   0.00000  -0.00006  -0.00007   3.03542
   A10        2.19496   0.00007   0.00000   0.00057   0.00057   2.19553
   A11        2.12736  -0.00006   0.00000  -0.00043  -0.00043   2.12693
   A12        1.96087  -0.00001   0.00000  -0.00015  -0.00015   1.96072
   A13        2.21359   0.00009   0.00000   0.00107   0.00106   2.21465
   A14        1.99139  -0.00040   0.00000  -0.00188  -0.00187   1.98952
   A15        3.01645  -0.00007   0.00000  -0.00011  -0.00009   3.01636
   A16        2.19001  -0.00275   0.00000  -0.01341  -0.01342   2.17659
   A17        2.15968   0.00123   0.00000   0.00583   0.00582   2.16549
   A18        1.93349   0.00153   0.00000   0.00758   0.00756   1.94106
   A19        2.11406   0.00224   0.00000   0.00322   0.00322   2.11727
   A20        1.96589   0.00005   0.00000   0.00620   0.00623   1.97212
   A21        2.47395  -0.00120   0.00000  -0.00827  -0.00830   2.46566
   A22        1.65680   0.00105   0.00000   0.00615   0.00617   1.66297
   A23        2.99375   0.00057   0.00000   0.00657   0.00658   3.00033
   A24        2.10699   0.02221   0.00000   0.09518   0.09457   2.20156
   A25        2.08679   0.00709   0.00000   0.05740   0.05679   2.14358
   A26        2.08940  -0.02930   0.00000  -0.15257  -0.15318   1.93622
   A27        1.93433   0.00407   0.00000   0.02348   0.02348   1.95782
   A28        2.70164   0.00403   0.00000   0.01531   0.01531   2.71695
    D1       -0.00024   0.00038   0.00000   0.01043   0.01045   0.01020
    D2       -3.14053  -0.00043   0.00000  -0.01519  -0.01521   3.12744
    D3        3.14113   0.00052   0.00000   0.01387   0.01387  -3.12818
    D4        0.00085  -0.00029   0.00000  -0.01176  -0.01178  -0.01094
    D5        0.00054  -0.00029   0.00000  -0.00794  -0.00795  -0.00741
    D6       -3.14084  -0.00042   0.00000  -0.01122  -0.01123   3.13111
    D7       -0.00250   0.00023   0.00000   0.01061   0.01063   0.00813
    D8        3.13889   0.00035   0.00000   0.01374   0.01375  -3.13054
    D9       -0.03233  -0.00036   0.00000  -0.01123  -0.01121  -0.04354
   D10        3.10793   0.00048   0.00000   0.01494   0.01490   3.12283
   D11        0.00294   0.00032   0.00000   0.00468   0.00465   0.00759
   D12       -3.13746  -0.00042   0.00000  -0.01866  -0.01865   3.12708
   D13        0.01679  -0.00001   0.00000  -0.00051  -0.00050   0.01628
   D14        0.00270   0.00017   0.00000   0.00233   0.00236   0.00507
   D15       -0.01586   0.00000   0.00000   0.00079   0.00080  -0.01506
   D16       -0.00241   0.00023   0.00000   0.00528   0.00528   0.00288
   D17        3.13914   0.00008   0.00000   0.00174   0.00174   3.14088
   D18       -0.00001  -0.00018   0.00000  -0.00447  -0.00448  -0.00449
   D19       -3.14156  -0.00005   0.00000  -0.00122  -0.00122   3.14040
   D20        0.03226   0.00021   0.00000   0.00728   0.00727   0.03953
   D21       -0.00056  -0.00039   0.00000  -0.01006  -0.01004  -0.01060
   D22        3.14101   0.00007   0.00000   0.00083   0.00084  -3.14134
   D23       -0.00010   0.00028   0.00000   0.00630   0.00631   0.00621
   D24        2.31746   0.00080   0.00000   0.01963   0.01961   2.33707
   D25        3.14152  -0.00012   0.00000  -0.00338  -0.00336   3.13816
   D26       -0.82412   0.00039   0.00000   0.00995   0.00994  -0.81417
   D27       -0.00241  -0.00023   0.00000   0.00060   0.00064  -0.00177
   D28       -2.67043   0.00036   0.00000  -0.00007  -0.00012  -2.67055
   D29        3.02302  -0.00128   0.00000  -0.07640  -0.07639   2.94663
   D30       -0.86616  -0.00090   0.00000  -0.06306  -0.06308  -0.92924
   D31        0.00000  -0.00248   0.00000  -0.06320  -0.06317  -0.06317
   D32        3.14158   0.00002   0.00000   0.00052   0.00049  -3.14111
   D33        1.71260  -0.00380   0.00000  -0.12606  -0.12606   1.58654
         Item               Value     Threshold  Converged?
 Maximum Force            0.040545     0.000450     NO 
 RMS     Force            0.007757     0.000300     NO 
 Maximum Displacement     0.563888     0.001800     NO 
 RMS     Displacement     0.122992     0.001200     NO 
 Predicted change in Energy=-7.186663D-03
 GradGradGradGradGradGradGradGradGradGradGradGradGradGradGradGradGradGrad

                          Input orientation:                          
 ---------------------------------------------------------------------
 Center     Atomic      Atomic             Coordinates (Angstroms)
 Number     Number       Type             X           Y           Z
 ---------------------------------------------------------------------
      1          6           0       -0.879266   -0.175990    0.610011
      2          8           0        0.198919   -0.111935   -0.051591
      3          8           0       -1.830220    0.733098    0.576753
      4          1           0       -1.069498   -1.024512    1.265523
      5          1           0       -1.650145    1.539575   -0.033010
      6          6           0       -0.165783    2.792829   -1.670099
      7          8           0       -1.226350    2.710610   -1.014002
      8          8           0        0.820252    1.898726   -1.671217
      9          1           0        0.041857    3.638909   -2.323595
     10          1           0        0.652831    1.098389   -1.068235
     11          6           0        1.217906   -3.048341    1.289020
     12          8           0        0.103592   -2.844146    1.778957
     13          8           0        1.834818   -2.226317    0.402510
     14          1           0        1.831227   -3.923917    1.508550
     15          1           0        1.288732   -1.408085    0.177695
     16          6           0        4.091272    0.402708   -0.257131
     17          8           0        3.265172    0.988940    0.456529
     18          8           0        4.157334   -0.931365   -0.469778
     19          1           0        4.834818    0.929465   -0.854422
     20          1           0        3.490228   -1.427023    0.062857
 ---------------------------------------------------------------------
                    Distance matrix (angstroms):
                    1          2          3          4          5
     1  C    0.000000
     2  O    1.266611   0.000000
     3  O    1.316002   2.286111   0.000000
     4  H    1.088978   2.043641   2.035263   0.000000
     5  H    1.987686   2.479288   1.026958   2.932214   0.000000
     6  C    3.810754   3.345179   3.472922   4.899659   2.540479
     7  O    3.330217   3.305206   2.608776   4.378580   1.585329
     8  O    3.520910   2.655560   3.665660   4.554219   2.985896
     9  H    4.899792   4.388108   4.512253   5.988686   3.537916
    10  H    2.605354   1.644531   3.000827   3.594377   2.563208
    11  C    3.620715   3.384975   4.908938   3.054284   5.569780
    12  O    3.074329   3.290133   4.240471   2.225045   5.057255
    13  O    3.407806   2.711639   4.713915   3.259475   5.149425
    14  H    4.711804   4.430539   5.996851   4.108505   6.659287
    15  H    2.530844   1.708880   3.804179   2.625214   4.167745
    16  C    5.078688   3.931605   5.989039   5.566774   5.857181
    17  O    4.307782   3.297274   5.103227   4.847455   4.970231
    18  O    5.206138   4.063914   6.302100   5.508150   6.326383
    19  H    6.001445   4.818776   6.819791   6.570626   6.565188
    20  H    4.577875   3.546163   5.765187   4.732813   5.935767
                    6          7          8          9         10
     6  C    0.000000
     7  O    1.249811   0.000000
     8  O    1.331047   2.297753   0.000000
     9  H    1.089047   2.045758   2.014878   0.000000
    10  H    1.975726   2.476594   1.015951   2.898872   0.000000
    11  C    6.692551   6.666619   5.778806   7.691124   4.803262
    12  O    6.613927   6.358040   5.908649   7.672336   4.894052
    13  O    5.787048   5.979172   4.727120   6.711723   3.822807
    14  H    7.694578   7.728453   6.710898   8.665074   5.766454
    15  H    4.814315   4.970858   3.817453   5.769168   2.870387
    16  C    5.082487   5.846056   3.864878   5.580415   3.600658
    17  O    4.421314   5.029949   3.366400   5.014099   3.026749
    18  O    5.830929   6.522593   4.537509   6.423488   4.093848
    19  H    5.398468   6.319470   4.209912   5.698423   4.190855
    20  H    5.846085   6.365984   4.603954   6.576480   3.963319
                   11         12         13         14         15
    11  C    0.000000
    12  O    1.234272   0.000000
    13  O    1.357278   2.296402   0.000000
    14  H    1.091325   2.055176   2.026125   0.000000
    15  H    1.982549   2.455783   1.009086   2.897393   0.000000
    16  C    4.749374   5.530760   3.526823   5.190868   3.364859
    17  O    4.602605   5.141687   3.519475   5.224855   3.119261
    18  O    4.026810   5.014814   2.798547   4.275502   2.979154
    19  H    5.787861   6.599948   4.531979   6.177419   4.370827
    20  H    3.048868   4.052473   1.869390   3.328181   2.204570
                   16         17         18         19         20
    16  C    0.000000
    17  O    1.239121   0.000000
    18  O    1.352529   2.311183   0.000000
    19  H    1.089536   2.045952   2.017331   0.000000
    20  H    1.952322   2.458151   0.987121   2.863976   0.000000
 Stoichiometry    C4H8O8
 Framework group  C1[X(C4H8O8)]
 Deg. of freedom    54
 Full point group                 C1      NOp   1
 Largest Abelian subgroup         C1      NOp   1
 Largest concise Abelian subgroup C1      NOp   1
                         Standard orientation:                         
 ---------------------------------------------------------------------
 Center     Atomic      Atomic             Coordinates (Angstroms)
 Number     Number       Type             X           Y           Z
 ---------------------------------------------------------------------
      1          6           0       -0.716852   -1.817392    0.213681
      2          8           0       -0.357323   -0.673272   -0.193788
      3          8           0       -1.961471   -2.162360    0.466234
      4          1           0        0.025143   -2.596544    0.381720
      5          1           0       -2.663061   -1.427191    0.318116
      6          6           0       -3.281735    0.942819   -0.355925
      7          8           0       -3.619064   -0.193309    0.040872
      8          8           0       -2.039219    1.335548   -0.627224
      9          1           0       -4.011387    1.734278   -0.520923
     10          1           0       -1.337233    0.615917   -0.480585
     11          6           0        2.876991   -1.671871   -0.201886
     12          8           0        2.239230   -2.660739    0.170711
     13          8           0        2.326377   -0.474779   -0.527462
     14          1           0        3.961630   -1.653133   -0.321034
     15          1           0        1.322098   -0.463202   -0.429765
     16          6           0        1.390442    2.800205    0.387410
     17          8           0        0.691815    2.139826    1.169228
     18          8           0        2.384090    2.320013   -0.394519
     19          1           0        1.225906    3.860888    0.200408
     20          1           0        2.548365    1.358995   -0.240038
 ---------------------------------------------------------------------
 Rotational constants (GHZ):      0.7865591      0.5270728      0.3344581
 Standard basis: 6-31G (6D, 7F)
 There are   124 symmetry adapted basis functions of A   symmetry.
 Integral buffers will be    131072 words long.
 Raffenetti 2 integral format.
 Two-electron integral symmetry is turned on.
   124 basis functions,   296 primitive gaussians,   124 cartesian basis functions
    48 alpha electrons       48 beta electrons
       nuclear repulsion energy       714.8844531581 Hartrees.
 NAtoms=   20 NActive=   20 NUniq=   20 SFac= 7.50D-01 NAtFMM=   80 NAOKFM=F Big=F
 One-electron integrals computed using PRISM.
 NBasis=   124 RedAO= T  NBF=   124
 NBsUse=   124 1.00D-06 NBFU=   124
 Initial guess read from the read-write file.
 B after Tr=     0.000000    0.000000    0.000000
         Rot=    1.000000    0.000000    0.000000    0.000000 Ang=   0.00 deg.
 Initial guess orbital symmetries:
       Occupied  (A) (A) (A) (A) (A) (A) (A) (A) (A) (A) (A) (A)
                 (A) (A) (A) (A) (A) (A) (A) (A) (A) (A) (A) (A)
                 (A) (A) (A) (A) (A) (A) (A) (A) (A) (A) (A) (A)
                 (A) (A) (A) (A) (A) (A) (A) (A) (A) (A) (A) (A)
       Virtual   (A) (A) (A) (A) (A) (A) (A) (A) (A) (A) (A) (A)
                 (A) (A) (A) (A) (A) (A) (A) (A) (A) (A) (A) (A)
                 (A) (A) (A) (A) (A) (A) (A) (A) (A) (A) (A) (A)
                 (A) (A) (A) (A) (A) (A) (A) (A) (A) (A) (A) (A)
                 (A) (A) (A) (A) (A) (A) (A) (A) (A) (A) (A) (A)
                 (A) (A) (A) (A) (A) (A) (A) (A) (A) (A) (A) (A)
                 (A) (A) (A) (A)
 Harris functional with IExCor=  402 diagonalized for initial guess.
 ExpMin= 1.61D-01 ExpMax= 5.48D+03 ExpMxC= 8.25D+02 IAcc=1 IRadAn=         1 AccDes= 0.00D+00
 HarFok:  IExCor=  402 AccDes= 0.00D+00 IRadAn=         1 IDoV= 1
 ScaDFX=  1.000000  1.000000  1.000000  1.000000
 FoFCou: FMM=F IPFlag=           0 FMFlag=      100000 FMFlg1=           0
         NFxFlg=           0 DoJE=T BraDBF=F KetDBF=T FulRan=T
         Omega=  0.000000  0.000000  1.000000  0.000000  0.000000 ICntrl=     500 IOpCl=  0
         NMat0=    1 NMatS0=    1 NMatT0=    0 NMatD0=    1 NMtDS0=    0 NMtDT0=    0
         I1Cent=           4 NGrid=           0.
 Petite list used in FoFCou.
 Requested convergence on RMS density matrix=1.00D-08 within 128 cycles.
 Requested convergence on MAX density matrix=1.00D-06.
 Requested convergence on             energy=1.00D-06.
 No special actions if energy rises.
 Keep R1 ints in memory in canonical form, NReq=31248119.
 Integral accuracy reduced to 1.0D-05 until final iterations.
 Initial convergence to 1.0D-05 achieved.  Increase integral accuracy.
 SCF Done:  E(RB3LYP) =  -758.814751735     A.U. after   15 cycles
             Convg  =    0.3472D-08             -V/T =  2.0057
 Calling FoFJK, ICntrl=      2127 FMM=F ISym2X=0 I1Cent= 0 IOpClX= 0 NMat=1 NMatS=1 NMatT=0.
 ***** Axes restored to original set *****
 -------------------------------------------------------------------
 Center     Atomic                   Forces (Hartrees/Bohr)
 Number     Number              X              Y              Z
 -------------------------------------------------------------------
      1        6           0.000349142    0.000956081    0.000351114
      2        8           0.000194732   -0.003583344   -0.000696606
      3        8           0.000177033   -0.000934891    0.000328032
      4        1          -0.001049177    0.000677014    0.000123199
      5        1           0.000378737    0.000951810   -0.000549255
      6        6           0.001547593   -0.000692200   -0.000189355
      7        8          -0.000938600   -0.000437095    0.000634052
      8        8          -0.001773927   -0.000192043   -0.001135011
      9        1           0.000039735    0.000133503    0.000193655
     10        1           0.002302606    0.001522234    0.001200233
     11        6          -0.003200216   -0.002874568    0.002867012
     12        8           0.002173853   -0.000705955   -0.001154899
     13        8           0.004179872    0.004654701   -0.000272521
     14        1           0.000561942    0.000684196   -0.000143642
     15        1          -0.004790856    0.002489180   -0.000118629
     16        6          -0.008556723    0.013504051   -0.001431995
     17        8           0.004183712   -0.007874292   -0.001544009
     18        8           0.005040759    0.000837685    0.002651643
     19        1           0.003673508   -0.001932597   -0.000053124
     20        1          -0.004493726   -0.007183471   -0.001059894
 -------------------------------------------------------------------
 Cartesian Forces:  Max     0.013504051 RMS     0.003166775

 GradGradGradGradGradGradGradGradGradGradGradGradGradGradGradGradGradGrad
 Berny optimization.
 Using GEDIIS/GDIIS optimizer.
 Internal  Forces:  Max     0.007402456 RMS     0.001791415
 Search for a local minimum.
 Step number   2 out of a maximum of   92
 All quantities printed in internal units (Hartrees-Bohrs-Radians)
 Mixed Optimization -- RFO/linear search
 Update second derivatives using D2CorX and points    1    2
 DE= -6.99D-03 DEPred=-7.19D-03 R= 9.73D-01
 SS=  1.41D+00  RLast= 2.80D-01 DXNew= 5.0454D-01 8.4129D-01
 Trust test= 9.73D-01 RLast= 2.80D-01 DXMaxT set to 5.05D-01
 Use linear search instead of GDIIS.
     Eigenvalues ---    0.00231   0.00401   0.00408   0.00461   0.00705
     Eigenvalues ---    0.01592   0.01740   0.01807   0.02220   0.02439
     Eigenvalues ---    0.02564   0.02622   0.02748   0.02801   0.03023
     Eigenvalues ---    0.03048   0.03214   0.03738   0.05420   0.07512
     Eigenvalues ---    0.08545   0.09756   0.13530   0.14909   0.15917
     Eigenvalues ---    0.15999   0.16000   0.16000   0.16077   0.18394
     Eigenvalues ---    0.19294   0.19746   0.20231   0.21233   0.21847
     Eigenvalues ---    0.23584   0.24550   0.26125   0.34410   0.34634
     Eigenvalues ---    0.34906   0.34917   0.42162   0.44383   0.45416
     Eigenvalues ---    0.52889   0.55109   0.58036   0.58661   0.61931
     Eigenvalues ---    0.72232   0.81893   0.85470   0.999731000.00000
     Eigenvalues --- 1000.000001000.000001000.000001000.000001000.00000
     Eigenvalues --- 1000.000001000.000001000.000001000.000001000.00000
     Eigenvalues --- 1000.000001000.000001000.000001000.000001000.00000
     Eigenvalues --- 1000.000001000.000001000.000001000.000001000.00000
     Eigenvalues --- 1000.000001000.000001000.000001000.000001000.00000
     Eigenvalues --- 1000.000001000.00000
 RFO step:  Lambda=-3.19666652D-03 EMin= 2.30814345D-03
 Quartic linear search produced a step of  0.06218.
 Iteration  1 RMS(Cart)=  0.12211794 RMS(Int)=  0.01621542
 Iteration  2 RMS(Cart)=  0.03950159 RMS(Int)=  0.00286984
 Iteration  3 RMS(Cart)=  0.00226995 RMS(Int)=  0.00237682
 Iteration  4 RMS(Cart)=  0.00002398 RMS(Int)=  0.00237676
 Iteration  5 RMS(Cart)=  0.00000064 RMS(Int)=  0.00237676
 Variable       Old X    -DE/DX   Delta X   Delta X   Delta X     New X
                                 (Linear)    (Quad)   (Total)
    R1        2.39355  -0.00005  -0.00004  -0.00004  -0.00005   2.39350
    R2        2.48688  -0.00062  -0.00011  -0.00126  -0.00137   2.48551
    R3        2.05787   0.00030  -0.00005  -0.00011  -0.00017   2.05770
    R4        3.10771   0.00073   0.00004   0.00805   0.00810   3.11581
    R5        3.22932  -0.00315  -0.00222  -0.04322  -0.04542   3.18389
    R6        1.94067   0.00054   0.00006   0.00162   0.00166   1.94233
    R7        4.20472   0.00109   0.00107   0.02159   0.02264   4.22737
    R8        2.99584  -0.00059  -0.00013  -0.00592  -0.00607   2.98977
    R9        2.36180   0.00083   0.00001   0.00113   0.00111   2.36291
   R10        2.51531  -0.00094  -0.00002  -0.00173  -0.00175   2.51356
   R11        2.05800  -0.00001  -0.00001  -0.00003  -0.00004   2.05796
   R12        1.91987  -0.00023  -0.00009  -0.00091  -0.00098   1.91888
   R13        2.33244  -0.00177  -0.00051  -0.00357  -0.00409   2.32835
   R14        2.56488   0.00276   0.00095   0.00772   0.00868   2.57356
   R15        2.06231  -0.00026  -0.00003  -0.00085  -0.00087   2.06143
   R16        1.90690   0.00152   0.00044   0.00543   0.00590   1.91279
   R17        3.53263  -0.00101   0.00034  -0.01768  -0.01735   3.51529
   R18        2.34160  -0.00740   0.00218  -0.00311  -0.00093   2.34066
   R19        2.55591   0.00321   0.00236   0.01108   0.01344   2.56935
   R20        2.05893   0.00160   0.00002   0.00482   0.00484   2.06376
   R21        1.86539   0.00541   0.00428   0.01964   0.02392   1.88931
    A1        2.17362   0.00004   0.00004   0.00052   0.00060   2.17422
    A2        2.09732  -0.00003  -0.00015  -0.00158  -0.00176   2.09556
    A3        2.01224  -0.00001   0.00012   0.00106   0.00115   2.01339
    A4        2.20816   0.00057   0.00008   0.00119   0.00107   2.20923
    A5        2.02019   0.00028   0.00016   0.00549   0.00541   2.02561
    A6        2.05459  -0.00087  -0.00025  -0.00747  -0.00800   2.04659
    A7        2.01616  -0.00020  -0.00009  -0.00074  -0.00081   2.01534
    A8        2.32406  -0.00056  -0.00017  -0.00689  -0.00710   2.31696
    A9        3.03542  -0.00005   0.00000   0.00042   0.00041   3.03583
   A10        2.19553   0.00024   0.00004   0.00135   0.00136   2.19689
   A11        2.12693  -0.00019  -0.00003  -0.00114  -0.00116   2.12577
   A12        1.96072  -0.00005  -0.00001  -0.00020  -0.00020   1.96052
   A13        2.21465   0.00006   0.00007   0.00163   0.00165   2.21630
   A14        1.98952   0.00007  -0.00012  -0.00075  -0.00084   1.98868
   A15        3.01636  -0.00074  -0.00001  -0.00381  -0.00376   3.01260
   A16        2.17659  -0.00021  -0.00083  -0.00340  -0.00425   2.17234
   A17        2.16549   0.00085   0.00036   0.00637   0.00673   2.17223
   A18        1.94106  -0.00064   0.00047  -0.00294  -0.00247   1.93859
   A19        2.11727   0.00045   0.00020  -0.00353  -0.00338   2.11389
   A20        1.97212  -0.00109   0.00039   0.00011   0.00052   1.97264
   A21        2.46566  -0.00067  -0.00052  -0.00597  -0.00652   2.45913
   A22        1.66297   0.00171   0.00038   0.01251   0.01287   1.67585
   A23        3.00033   0.00115   0.00041   0.00956   0.01002   3.01035
   A24        2.20156  -0.00533   0.00588  -0.00846  -0.01467   2.18689
   A25        2.14358   0.00584   0.00353   0.04593   0.03699   2.18057
   A26        1.93622  -0.00005  -0.00953  -0.02102  -0.04273   1.89349
   A27        1.95782  -0.00046   0.00146   0.00031   0.00177   1.95959
   A28        2.71695   0.00366   0.00095   0.01730   0.01825   2.73520
    D1        0.01020   0.00029   0.00065   0.01312   0.01381   0.02401
    D2        3.12744  -0.00049  -0.00095  -0.02665  -0.02770   3.09974
    D3       -3.12818   0.00035   0.00086   0.01529   0.01620  -3.11198
    D4       -0.01094  -0.00043  -0.00073  -0.02449  -0.02532  -0.03625
    D5       -0.00741  -0.00027  -0.00049  -0.01333  -0.01382  -0.02123
    D6        3.13111  -0.00033  -0.00070  -0.01540  -0.01612   3.11500
    D7        0.00813   0.00024   0.00066   0.02104   0.02165   0.02978
    D8       -3.13054   0.00029   0.00086   0.02302   0.02383  -3.10671
    D9       -0.04354  -0.00035  -0.00070  -0.02297  -0.02362  -0.06716
   D10        3.12283   0.00043   0.00093   0.01734   0.01816   3.14100
   D11        0.00759   0.00039   0.00029   0.00959   0.00986   0.01745
   D12        3.12708  -0.00030  -0.00116  -0.02641  -0.02753   3.09955
   D13        0.01628   0.00005  -0.00003  -0.00030  -0.00032   0.01596
   D14        0.00507   0.00016   0.00015  -0.00128  -0.00118   0.00389
   D15       -0.01506   0.00008   0.00005   0.00787   0.00792  -0.00714
   D16        0.00288   0.00011   0.00033   0.00350   0.00382   0.00670
   D17        3.14088   0.00017   0.00011   0.00467   0.00475  -3.13755
   D18       -0.00449  -0.00019  -0.00028  -0.00819  -0.00851  -0.01299
   D19        3.14040  -0.00025  -0.00008  -0.00926  -0.00936   3.13104
   D20        0.03953   0.00034   0.00045   0.02309   0.02349   0.06302
   D21       -0.01060  -0.00010  -0.00062  -0.00528  -0.00588  -0.01648
   D22       -3.14134  -0.00023   0.00005  -0.00834  -0.00826   3.13359
   D23        0.00621  -0.00010   0.00039  -0.00204  -0.00159   0.00462
   D24        2.33707   0.00048   0.00122   0.01746   0.01869   2.35576
   D25        3.13816   0.00002  -0.00021   0.00073   0.00057   3.13872
   D26       -0.81417   0.00061   0.00062   0.02024   0.02085  -0.79332
   D27       -0.00177   0.00005   0.00004   0.00880   0.00891   0.00715
   D28       -2.67055   0.00027  -0.00001   0.00371   0.00367  -2.66689
   D29        2.94663  -0.00072  -0.00475  -0.14950  -0.15424   2.79240
   D30       -0.92924  -0.00078  -0.00392  -0.13377  -0.13771  -1.06694
   D31       -0.06317   0.00362  -0.00393   0.12383   0.11737   0.05419
   D32       -3.14111  -0.00458   0.00003  -0.16540  -0.16283   2.97924
   D33        1.58654  -0.00379  -0.00784  -0.21154  -0.21938   1.36716
         Item               Value     Threshold  Converged?
 Maximum Force            0.007402     0.000450     NO 
 RMS     Force            0.001791     0.000300     NO 
 Maximum Displacement     0.902370     0.001800     NO 
 RMS     Displacement     0.152610     0.001200     NO 
 Predicted change in Energy=-1.787145D-03
 GradGradGradGradGradGradGradGradGradGradGradGradGradGradGradGradGradGrad

                          Input orientation:                          
 ---------------------------------------------------------------------
 Center     Atomic      Atomic             Coordinates (Angstroms)
 Number     Number       Type             X           Y           Z
 ---------------------------------------------------------------------
      1          6           0       -0.897149   -0.212986    0.578268
      2          8           0        0.204118   -0.136755   -0.042727
      3          8           0       -1.846477    0.696007    0.528639
      4          1           0       -1.107965   -1.073382    1.211475
      5          1           0       -1.639290    1.520425   -0.049162
      6          6           0       -0.087596    2.816665   -1.585023
      7          8           0       -1.173669    2.717084   -0.973443
      8          8           0        0.894433    1.919549   -1.580737
      9          1           0        0.147881    3.684958   -2.198700
     10          1           0        0.704338    1.103216   -1.007534
     11          6           0        1.221673   -3.056631    1.314969
     12          8           0        0.083500   -2.886941    1.755263
     13          8           0        1.854223   -2.201969    0.464014
     14          1           0        1.852583   -3.915084    1.549478
     15          1           0        1.292958   -1.394475    0.224233
     16          6           0        3.957246    0.412819   -0.475710
     17          8           0        2.971962    1.010008   -0.020984
     18          8           0        4.224735   -0.908707   -0.300665
     19          1           0        4.848342    0.895615   -0.882566
     20          1           0        3.501851   -1.377800    0.206238
 ---------------------------------------------------------------------
                    Distance matrix (angstroms):
                    1          2          3          4          5
     1  C    0.000000
     2  O    1.266584   0.000000
     3  O    1.315278   2.285802   0.000000
     4  H    1.088886   2.042511   2.035289   0.000000
     5  H    1.987249   2.478798   1.027835   2.932464   0.000000
     6  C    3.809723   3.344617   3.472524   4.898369   2.539067
     7  O    3.327098   3.302866   2.606468   4.375593   1.582116
     8  O    3.524029   2.659021   3.668666   4.556718   2.987436
     9  H    4.898736   4.388266   4.511061   5.987340   3.535492
    10  H    2.609965   1.648818   3.005380   3.598058   2.566152
    11  C    3.621941   3.377045   4.910616   3.061242   5.567352
    12  O    3.081724   3.287984   4.250521   2.237027   5.064467
    13  O    3.396933   2.691606   4.700811   3.256834   5.130712
    14  H    4.712727   4.419086   5.998943   4.117567   6.655342
    15  H    2.513529   1.684844   3.784023   2.615756   4.143606
    16  C    5.006761   3.817785   5.896789   5.541818   5.721010
    17  O    4.101810   2.996081   4.859840   4.743972   4.639501
    18  O    5.243115   4.102171   6.334230   5.545392   6.352223
    19  H    6.031062   4.831142   6.844848   6.613588   6.570717
    20  H    4.565786   3.532311   5.745366   4.727957   5.907307
                    6          7          8          9         10
     6  C    0.000000
     7  O    1.250400   0.000000
     8  O    1.330119   2.298241   0.000000
     9  H    1.089028   2.045612   2.013924   0.000000
    10  H    1.973971   2.476418   1.015430   2.897226   0.000000
    11  C    6.679802   6.656597   5.766677   7.677755   4.792284
    12  O    6.611952   6.358569   5.906679   7.669930   4.892835
    13  O    5.758116   5.952436   4.699906   6.682631   3.796305
    14  H    7.675014   7.714207   6.690235   8.643812   5.748052
    15  H    4.786756   4.942023   3.794666   5.743035   2.846433
    16  C    4.834232   5.646563   3.587778   5.309130   3.367624
    17  O    3.882155   4.583399   2.752494   4.457941   2.474689
    18  O    5.841590   6.537718   4.552860   6.428455   4.115907
    19  H    5.342974   6.292108   4.143584   5.622009   4.151082
    20  H    5.803989   6.326153   4.567759   6.531796   3.931254
                   11         12         13         14         15
    11  C    0.000000
    12  O    1.232109   0.000000
    13  O    1.361871   2.296078   0.000000
    14  H    1.090863   2.056473   2.028053   0.000000
    15  H    1.989359   2.456480   1.012206   2.902227   0.000000
    16  C    4.767282   5.556219   3.484667   5.221278   3.294642
    17  O    4.624482   5.165702   3.435310   5.289224   2.942911
    18  O    4.030165   5.028924   2.806526   4.253051   3.017748
    19  H    5.796735   6.630957   4.513651   6.167028   4.371529
    20  H    3.040883   4.045011   1.860210   3.310920   2.209029
                   16         17         18         19         20
    16  C    0.000000
    17  O    1.238626   0.000000
    18  O    1.359640   2.308490   0.000000
    19  H    1.092097   2.067900   1.995763   0.000000
    20  H    1.969455   2.456428   0.999780   2.857787   0.000000
 Stoichiometry    C4H8O8
 Framework group  C1[X(C4H8O8)]
 Deg. of freedom    54
 Full point group                 C1      NOp   1
 Largest Abelian subgroup         C1      NOp   1
 Largest concise Abelian subgroup C1      NOp   1
                         Standard orientation:                         
 ---------------------------------------------------------------------
 Center     Atomic      Atomic             Coordinates (Angstroms)
 Number     Number       Type             X           Y           Z
 ---------------------------------------------------------------------
      1          6           0       -0.585709   -1.876430    0.147459
      2          8           0       -0.276304   -0.696003   -0.191798
      3          8           0       -1.814469   -2.293418    0.362462
      4          1           0        0.191997   -2.625949    0.285541
      5          1           0       -2.547876   -1.581158    0.256421
      6          6           0       -3.268738    0.795881   -0.269800
      7          8           0       -3.554671   -0.377784    0.053085
      8          8           0       -2.046939    1.261363   -0.514236
      9          1           0       -4.033921    1.562431   -0.383284
     10          1           0       -1.312648    0.568410   -0.405929
     11          6           0        3.004182   -1.496540   -0.147192
     12          8           0        2.422651   -2.544782    0.137592
     13          8           0        2.379153   -0.316173   -0.413206
     14          1           0        4.087244   -1.393529   -0.226858
     15          1           0        1.370878   -0.379089   -0.350100
     16          6           0        1.077337    2.844646    0.263107
     17          8           0        0.237809    2.092342    0.776356
     18          8           0        2.324410    2.475860   -0.133663
     19          1           0        1.021811    3.935330    0.261626
     20          1           0        2.486963    1.496965   -0.011595
 ---------------------------------------------------------------------
 Rotational constants (GHZ):      0.8128385      0.5476009      0.3371591
 Standard basis: 6-31G (6D, 7F)
 There are   124 symmetry adapted basis functions of A   symmetry.
 Integral buffers will be    131072 words long.
 Raffenetti 2 integral format.
 Two-electron integral symmetry is turned on.
   124 basis functions,   296 primitive gaussians,   124 cartesian basis functions
    48 alpha electrons       48 beta electrons
       nuclear repulsion energy       722.2515433454 Hartrees.
 NAtoms=   20 NActive=   20 NUniq=   20 SFac= 7.50D-01 NAtFMM=   80 NAOKFM=F Big=F
 One-electron integrals computed using PRISM.
 NBasis=   124 RedAO= T  NBF=   124
 NBsUse=   124 1.00D-06 NBFU=   124
 Initial guess read from the read-write file.
 B after Tr=     0.000000    0.000000    0.000000
         Rot=    1.000000    0.000000    0.000000    0.000000 Ang=   0.00 deg.
 Initial guess orbital symmetries:
       Occupied  (A) (A) (A) (A) (A) (A) (A) (A) (A) (A) (A) (A)
                 (A) (A) (A) (A) (A) (A) (A) (A) (A) (A) (A) (A)
                 (A) (A) (A) (A) (A) (A) (A) (A) (A) (A) (A) (A)
                 (A) (A) (A) (A) (A) (A) (A) (A) (A) (A) (A) (A)
       Virtual   (A) (A) (A) (A) (A) (A) (A) (A) (A) (A) (A) (A)
                 (A) (A) (A) (A) (A) (A) (A) (A) (A) (A) (A) (A)
                 (A) (A) (A) (A) (A) (A) (A) (A) (A) (A) (A) (A)
                 (A) (A) (A) (A) (A) (A) (A) (A) (A) (A) (A) (A)
                 (A) (A) (A) (A) (A) (A) (A) (A) (A) (A) (A) (A)
                 (A) (A) (A) (A) (A) (A) (A) (A) (A) (A) (A) (A)
                 (A) (A) (A) (A)
 Harris functional with IExCor=  402 diagonalized for initial guess.
 ExpMin= 1.61D-01 ExpMax= 5.48D+03 ExpMxC= 8.25D+02 IAcc=1 IRadAn=         1 AccDes= 0.00D+00
 HarFok:  IExCor=  402 AccDes= 0.00D+00 IRadAn=         1 IDoV= 1
 ScaDFX=  1.000000  1.000000  1.000000  1.000000
 FoFCou: FMM=F IPFlag=           0 FMFlag=      100000 FMFlg1=           0
         NFxFlg=           0 DoJE=T BraDBF=F KetDBF=T FulRan=T
         Omega=  0.000000  0.000000  1.000000  0.000000  0.000000 ICntrl=     500 IOpCl=  0
         NMat0=    1 NMatS0=    1 NMatT0=    0 NMatD0=    1 NMtDS0=    0 NMtDT0=    0
         I1Cent=           4 NGrid=           0.
 Petite list used in FoFCou.
 Requested convergence on RMS density matrix=1.00D-08 within 128 cycles.
 Requested convergence on MAX density matrix=1.00D-06.
 Requested convergence on             energy=1.00D-06.
 No special actions if energy rises.
 Keep R1 ints in memory in canonical form, NReq=31248119.
 Integral accuracy reduced to 1.0D-05 until final iterations.
 Initial convergence to 1.0D-05 achieved.  Increase integral accuracy.
 SCF Done:  E(RB3LYP) =  -758.812469636     A.U. after   16 cycles
             Convg  =    0.4078D-08             -V/T =  2.0057
 Calling FoFJK, ICntrl=      2127 FMM=F ISym2X=0 I1Cent= 0 IOpClX= 0 NMat=1 NMatS=1 NMatT=0.
 ***** Axes restored to original set *****
 -------------------------------------------------------------------
 Center     Atomic                   Forces (Hartrees/Bohr)
 Number     Number              X              Y              Z
 -------------------------------------------------------------------
      1        6           0.001080342    0.000289435   -0.000025273
      2        8          -0.002075869   -0.003797488    0.000064053
      3        8          -0.000235670   -0.000458688    0.000859453
      4        1          -0.001448795    0.000629132    0.000141672
      5        1           0.000486252    0.001087796   -0.001295987
      6        6           0.003221621   -0.001959806   -0.000866064
      7        8          -0.002156609   -0.000305786    0.001609488
      8        8          -0.006656296    0.001916521   -0.003819694
      9        1          -0.000098198    0.000256987    0.000132400
     10        1           0.005116753    0.002057123    0.001493859
     11        6           0.000289633    0.000045144   -0.000822564
     12        8          -0.000159324   -0.000969400    0.000348175
     13        8           0.003067831    0.003238211    0.002026561
     14        1           0.000398829    0.000238852    0.000087368
     15        1          -0.004365500    0.001892334   -0.000623822
     16        6           0.008768400    0.005983846    0.026170933
     17        8           0.004385550   -0.006740857   -0.009223858
     18        8          -0.006857531   -0.002179446    0.000533312
     19        1          -0.004894480    0.001597666   -0.009594076
     20        1           0.002133061   -0.002821577   -0.007195936
 -------------------------------------------------------------------
 Cartesian Forces:  Max     0.026170933 RMS     0.004788162

 GradGradGradGradGradGradGradGradGradGradGradGradGradGradGradGradGradGrad
 Berny optimization.
 Using GEDIIS/GDIIS optimizer.
 Internal  Forces:  Max     0.019919465 RMS     0.004592379
 Search for a local minimum.
 Step number   3 out of a maximum of   92
 All quantities printed in internal units (Hartrees-Bohrs-Radians)
 Mixed Optimization -- RFO/linear search
 Update second derivatives using D2CorX and points    1    3    2
 DE=  2.28D-03 DEPred=-1.79D-03 R=-1.28D+00
 Trust test=-1.28D+00 RLast= 3.82D-01 DXMaxT set to 2.52D-01
 Use linear search instead of GDIIS.
 Quartic linear search produced a step of -0.67530.
 Iteration  1 RMS(Cart)=  0.09396334 RMS(Int)=  0.00924717
 Iteration  2 RMS(Cart)=  0.01557878 RMS(Int)=  0.00054367
 Iteration  3 RMS(Cart)=  0.00032496 RMS(Int)=  0.00051676
 Iteration  4 RMS(Cart)=  0.00000064 RMS(Int)=  0.00051676
 Variable       Old X    -DE/DX   Delta X   Delta X   Delta X     New X
                                 (Linear)    (Quad)   (Total)
    R1        2.39350   0.00187   0.00003   0.00000   0.00003   2.39352
    R2        2.48551   0.00011   0.00092   0.00000   0.00092   2.48644
    R3        2.05770  -0.00109   0.00012   0.00000   0.00012   2.05782
    R4        3.11581   0.00426  -0.00547   0.00000  -0.00547   3.11034
    R5        3.18389   0.00316   0.03067   0.00000   0.03067   3.21456
    R6        1.94233  -0.00033  -0.00112   0.00000  -0.00112   1.94121
    R7        4.22737  -0.00134  -0.01529   0.00000  -0.01529   4.21208
    R8        2.98977  -0.00210   0.00410   0.00000   0.00410   2.99387
    R9        2.36291   0.00096  -0.00075   0.00000  -0.00075   2.36217
   R10        2.51356  -0.00199   0.00118   0.00000   0.00119   2.51475
   R11        2.05796   0.00011   0.00002   0.00000   0.00002   2.05799
   R12        1.91888   0.00255   0.00067   0.00000   0.00066   1.91955
   R13        2.32835  -0.00050   0.00276   0.00000   0.00276   2.33111
   R14        2.57356   0.00056  -0.00586   0.00000  -0.00586   2.56770
   R15        2.06143   0.00006   0.00059   0.00000   0.00059   2.06202
   R16        1.91279   0.00713  -0.00398   0.00000  -0.00399   1.90881
   R17        3.51529   0.00119   0.01171   0.00000   0.01171   3.52700
   R18        2.34066  -0.01012   0.00063   0.00000   0.00063   2.34130
   R19        2.56935  -0.00176  -0.00908   0.00000  -0.00908   2.56027
   R20        2.06376   0.00029  -0.00327   0.00000  -0.00327   2.06050
   R21        1.88931  -0.00361  -0.01615   0.00000  -0.01615   1.87316
    A1        2.17422   0.00166  -0.00040   0.00000  -0.00041   2.17381
    A2        2.09556   0.00162   0.00119   0.00000   0.00119   2.09675
    A3        2.01339  -0.00327  -0.00078   0.00000  -0.00077   2.01262
    A4        2.20923  -0.00289  -0.00072   0.00000  -0.00068   2.20855
    A5        2.02561   0.00030  -0.00366   0.00000  -0.00360   2.02200
    A6        2.04659   0.00264   0.00540   0.00000   0.00546   2.05205
    A7        2.01534   0.00145   0.00055   0.00000   0.00055   2.01589
    A8        2.31696  -0.00012   0.00480   0.00000   0.00480   2.32176
    A9        3.03583   0.00050  -0.00027   0.00000  -0.00027   3.03556
   A10        2.19689   0.00079  -0.00092   0.00000  -0.00092   2.19597
   A11        2.12577  -0.00062   0.00078   0.00000   0.00078   2.12655
   A12        1.96052  -0.00017   0.00014   0.00000   0.00014   1.96065
   A13        2.21630  -0.00119  -0.00112   0.00000  -0.00111   2.21519
   A14        1.98868   0.00343   0.00057   0.00000   0.00056   1.98924
   A15        3.01260  -0.00374   0.00254   0.00000   0.00253   3.01513
   A16        2.17234   0.00371   0.00287   0.00000   0.00287   2.17521
   A17        2.17223  -0.00153  -0.00455   0.00000  -0.00455   2.16768
[...]
 ! D32   D(19,16,18,20)        179.119          -DE/DX =    0.0                 !
 ! D33   D(16,18,20,13)         -8.5765         -DE/DX =    0.0                 !
 --------------------------------------------------------------------------------
 GradGradGradGradGradGradGradGradGradGradGradGradGradGradGradGradGradGrad

                          Input orientation:                          
 ---------------------------------------------------------------------
 Center     Atomic      Atomic             Coordinates (Angstroms)
 Number     Number       Type             X           Y           Z
 ---------------------------------------------------------------------
      1          6           0       -0.962183   -0.182720    0.653468
      2          8           0        0.150206   -0.072810    0.065627
      3          8           0       -1.925033    0.713485    0.590404
      4          1           0       -1.194053   -1.054730    1.263391
      5          1           0       -1.706736    1.526227    0.001506
      6          6           0       -0.245949    2.812205   -1.668519
      7          8           0       -1.274348    2.663560   -0.977027
      8          8           0        0.858536    2.073191   -1.636102
      9          1           0       -0.165118    3.613276   -2.402807
     10          1           0        0.884023    1.323136   -0.974596
     11          6           0        1.297201   -2.981599    1.222073
     12          8           0        0.133737   -2.962376    1.627048
     13          8           0        1.878204   -1.985982    0.499677
     14          1           0        1.997159   -3.800756    1.398418
     15          1           0        1.251404   -1.197567    0.300617
     16          6           0        4.122702    0.232451   -0.350874
     17          8           0        3.021769    0.794137   -0.321753
     18          8           0        4.336890   -1.079454   -0.111183
     19          1           0        5.062039    0.741879   -0.576399
     20          1           0        3.487247   -1.563936    0.112356
 ---------------------------------------------------------------------
                    Distance matrix (angstroms):
                    1          2          3          4          5
     1  C    0.000000
     2  O    1.262952   0.000000
     3  O    1.316906   2.280410   0.000000
     4  H    1.089115   2.050814   2.028257   0.000000
     5  H    1.974820   2.451381   1.027134   2.918311   0.000000
     6  C    3.856707   3.389323   3.510937   4.944510   2.564493
     7  O    3.295037   3.256409   2.585154   4.341843   1.561413
     8  O    3.694087   2.828945   3.815020   4.733294   3.092175
     9  H    4.938189   4.447451   4.523869   6.024117   3.537383
    10  H    2.885597   1.889236   3.272872   3.870559   2.775978
    11  C    3.641682   3.333769   4.943222   3.149742   5.552830
    12  O    3.142513   3.284495   4.338793   2.352528   5.116375
    13  O    3.367967   2.614308   4.664758   3.299887   5.043371
    14  H    4.733164   4.368655   6.034471   4.212211   6.636788
    15  H    2.460566   1.591520   3.718313   2.632033   4.032260
    16  C    5.199723   4.005917   6.139421   5.703557   5.981670
    17  O    4.216300   3.024489   5.030843   4.868690   4.795750
    18  O    5.428536   4.309631   6.551224   5.699246   6.582378
    19  H    6.217612   5.020160   7.083883   6.763972   6.838530
    20  H    4.690201   3.655336   5.891345   4.847550   6.044738
                    6          7          8          9         10
     6  C    0.000000
     7  O    1.248144   0.000000
     8  O    1.329315   2.309136   0.000000
     9  H    1.089691   2.040882   2.001891   0.000000
    10  H    1.993914   2.540730   1.000411   2.895726   0.000000
    11  C    6.656200   6.581544   5.823443   7.666192   4.850444
    12  O    6.659633   6.357285   6.044040   7.718047   5.069230
    13  O    5.677649   5.808397   4.698740   6.629575   3.756612
    14  H    7.626853   7.624491   6.708802   8.607707   5.755391
    15  H    4.711458   4.787494   3.821398   5.697301   2.848697
    16  C    5.241796   5.952352   3.961680   5.833164   3.473853
    17  O    4.069934   4.730830   2.836031   4.736516   2.296955
    18  O    6.210694   6.800429   4.935939   6.895022   4.294206
    19  H    5.801181   6.633487   4.534842   6.237296   4.237008
    20  H    6.021534   6.459973   4.816214   6.816842   4.036511
                   11         12         13         14         15
    11  C    0.000000
    12  O    1.232080   0.000000
    13  O    1.360395   2.295098   0.000000
    14  H    1.091814   2.056086   2.028618   0.000000
    15  H    2.008469   2.474501   1.026694   2.921970   0.000000
    16  C    4.559357   5.480049   3.268433   4.883105   3.273185
    17  O    4.428737   5.123470   3.116336   5.012170   2.736497
    18  O    3.825630   4.922737   2.690740   3.893421   3.115085
    19  H    5.592208   6.547125   4.328507   5.824854   4.364807
    20  H    2.835056   3.936490   1.707969   2.979544   2.273469
                   16         17         18         19         20
    16  C    0.000000
    17  O    1.236281   0.000000
    18  O    1.350712   2.298744   0.000000
    19  H    1.092123   2.056763   2.014825   0.000000
    20  H    1.960967   2.442463   1.003288   2.875958   0.000000
 Stoichiometry    C4H8O8
 Framework group  C1[X(C4H8O8)]
 Deg. of freedom    54
 Full point group                 C1      NOp   1
 Largest Abelian subgroup         C1      NOp   1
 Largest concise Abelian subgroup C1      NOp   1
                         Standard orientation:                         
 ---------------------------------------------------------------------
 Center     Atomic      Atomic             Coordinates (Angstroms)
 Number     Number       Type             X           Y           Z
 ---------------------------------------------------------------------
      1          6           0       -0.867257   -1.848777    0.214007
      2          8           0       -0.420319   -0.702416   -0.070861
      3          8           0       -2.139998   -2.117642    0.419147
      4          1           0       -0.202312   -2.706342    0.306751
      5          1           0       -2.764020   -1.308445    0.315228
      6          6           0       -3.263258    1.126610   -0.315560
      7          8           0       -3.601122   -0.016279    0.055270
      8          8           0       -2.026652    1.594785   -0.452299
      9          1           0       -4.003962    1.883029   -0.573658
     10          1           0       -1.277568    0.974760   -0.217213
     11          6           0        2.746445   -1.733397   -0.221539
     12          8           0        2.122604   -2.781061   -0.044780
     13          8           0        2.176137   -0.500793   -0.299704
     14          1           0        3.830801   -1.673902   -0.334176
     15          1           0        1.153463   -0.510199   -0.209413
     16          6           0        1.703290    2.669357    0.340000
     17          8           0        0.616127    2.090951    0.449150
     18          8           0        2.866005    2.085168   -0.022271
     19          1           0        1.849185    3.735215    0.528129
     20          1           0        2.756837    1.101421   -0.186317
 ---------------------------------------------------------------------
 Rotational constants (GHZ):      0.8244639      0.5236764      0.3267517

 **********************************************************************

            Population analysis using the SCF density.

 **********************************************************************

 Orbital symmetries:
       Occupied  (A) (A) (A) (A) (A) (A) (A) (A) (A) (A) (A) (A)
                 (A) (A) (A) (A) (A) (A) (A) (A) (A) (A) (A) (A)
                 (A) (A) (A) (A) (A) (A) (A) (A) (A) (A) (A) (A)
                 (A) (A) (A) (A) (A) (A) (A) (A) (A) (A) (A) (A)
       Virtual   (A) (A) (A) (A) (A) (A) (A) (A) (A) (A) (A) (A)
                 (A) (A) (A) (A) (A) (A) (A) (A) (A) (A) (A) (A)
                 (A) (A) (A) (A) (A) (A) (A) (A) (A) (A) (A) (A)
                 (A) (A) (A) (A) (A) (A) (A) (A) (A) (A) (A) (A)
                 (A) (A) (A) (A) (A) (A) (A) (A) (A) (A) (A) (A)
                 (A) (A) (A) (A) (A) (A) (A) (A) (A) (A) (A) (A)
                 (A) (A) (A) (A)
 The electronic state is 1-A.
 Alpha  occ. eigenvalues --  -19.21430 -19.21346 -19.21105 -19.19581 -19.18762
 Alpha  occ. eigenvalues --  -19.18639 -19.17488 -19.15326 -10.36346 -10.36335
 Alpha  occ. eigenvalues --  -10.35226 -10.33129  -1.15020  -1.13914  -1.13031
 Alpha  occ. eigenvalues --   -1.11128  -1.06461  -1.05412  -1.04601  -1.02676
 Alpha  occ. eigenvalues --   -0.70540  -0.68524  -0.67867  -0.66238  -0.57994
 Alpha  occ. eigenvalues --   -0.55238  -0.54867  -0.53417  -0.51905  -0.50538
 Alpha  occ. eigenvalues --   -0.49219  -0.47729  -0.47329  -0.46760  -0.46115
 Alpha  occ. eigenvalues --   -0.44018  -0.42362  -0.42053  -0.38373  -0.36894
 Alpha  occ. eigenvalues --   -0.35307  -0.34422  -0.34020  -0.33379  -0.31876
 Alpha  occ. eigenvalues --   -0.31585  -0.30552  -0.28487
 Alpha virt. eigenvalues --   -0.04718  -0.03975  -0.03263  -0.01212   0.09520
 Alpha virt. eigenvalues --    0.10440   0.11224   0.13105   0.13478   0.14343
 Alpha virt. eigenvalues --    0.16438   0.19785   0.23469   0.24309   0.25375
 Alpha virt. eigenvalues --    0.26119   0.26676   0.30410   0.31180   0.35267
 Alpha virt. eigenvalues --    0.47672   0.49350   0.50200   0.51041   0.51439
 Alpha virt. eigenvalues --    0.51927   0.55558   0.57015   0.58868   0.62824
 Alpha virt. eigenvalues --    0.64673   0.66198   0.69068   0.70777   0.71991
 Alpha virt. eigenvalues --    0.74747   0.77026   0.77584   0.80952   0.82361
 Alpha virt. eigenvalues --    0.83602   0.84005   0.85195   0.86451   0.87564
 Alpha virt. eigenvalues --    0.88581   0.89018   0.92462   0.95023   0.97432
 Alpha virt. eigenvalues --    0.98806   1.00073   1.01045   1.01508   1.06136
 Alpha virt. eigenvalues --    1.12323   1.14085   1.16032   1.17854   1.20293
 Alpha virt. eigenvalues --    1.24023   1.26771   1.27780   1.29578   1.35530
 Alpha virt. eigenvalues --    1.39627   1.40739   1.50803   1.64623   1.65368
 Alpha virt. eigenvalues --    1.68626   1.70058   1.75430   1.82673   1.89994
 Alpha virt. eigenvalues --    1.95007
          Condensed to atoms (all electrons):
              1          2          3          4          5          6
     1  C    4.696655   0.321225   0.243763   0.358505  -0.018143   0.001200
     2  O    0.321225   8.279864  -0.086304  -0.062794   0.003925   0.001531
     3  O    0.243763  -0.086304   8.272511  -0.063821   0.193513   0.001938
     4  H    0.358505  -0.062794  -0.063821   0.523209   0.002915   0.000020
     5  H   -0.018143   0.003925   0.193513   0.002915   0.297314  -0.008744
     6  C    0.001200   0.001531   0.001938   0.000020  -0.008744   4.633084
     7  O    0.002796  -0.001347  -0.042387  -0.000060   0.090819   0.375871
     8  O    0.000153  -0.013561   0.000213  -0.000030  -0.000376   0.230389
     9  H    0.000013  -0.000022  -0.000083   0.000000   0.000972   0.382726
    10  H   -0.002140   0.049586  -0.000930   0.000380   0.001239  -0.012493
    11  C    0.001804   0.001135   0.000011  -0.001071   0.000001   0.000000
    12  O   -0.004602  -0.000827   0.000068   0.022896   0.000000   0.000000
    13  O    0.000301  -0.037058  -0.000019   0.000314   0.000003   0.000001
    14  H    0.000008  -0.000080   0.000000   0.000223   0.000000   0.000000
    15  H   -0.003022   0.075792   0.000462  -0.000068  -0.000006  -0.000007
    16  C    0.000005  -0.000099   0.000000   0.000000   0.000000   0.000006
    17  O    0.000058  -0.001340   0.000000  -0.000005  -0.000007   0.000034
    18  O   -0.000001  -0.000010   0.000000   0.000000   0.000000   0.000000
    19  H    0.000000  -0.000003   0.000000   0.000000   0.000000   0.000000
    20  H    0.000013   0.000134   0.000000  -0.000006   0.000000   0.000000
              7          8          9         10         11         12
     1  C    0.002796   0.000153   0.000013  -0.002140   0.001804  -0.004602
     2  O   -0.001347  -0.013561  -0.000022   0.049586   0.001135  -0.000827
     3  O   -0.042387   0.000213  -0.000083  -0.000930   0.000011   0.000068
     4  H   -0.000060  -0.000030   0.000000   0.000380  -0.001071   0.022896
     5  H    0.090819  -0.000376   0.000972   0.001239   0.000001   0.000000
     6  C    0.375871   0.230389   0.382726  -0.012493   0.000000   0.000000
     7  O    8.190162  -0.081169  -0.063539   0.000941   0.000000   0.000000
     8  O   -0.081169   8.263351  -0.081541   0.199834   0.000000   0.000000
     9  H   -0.063539  -0.081541   0.574612   0.003973   0.000000   0.000000
    10  H    0.000941   0.199834   0.003973   0.287794  -0.000013  -0.000001
    11  C    0.000000   0.000000   0.000000  -0.000013   4.648167   0.470024
    12  O    0.000000   0.000000   0.000000  -0.000001   0.470024   8.058642
    13  O    0.000000  -0.000001   0.000000  -0.000045   0.136442  -0.087213
    14  H    0.000000   0.000000   0.000000   0.000000   0.365515  -0.058958
    15  H    0.000006  -0.000055   0.000000   0.000757  -0.009645   0.002181
    16  C    0.000000   0.000354   0.000000  -0.000727   0.000151  -0.000001
    17  O    0.000000  -0.001293  -0.000013   0.014939   0.000028   0.000000
    18  O    0.000000   0.000000   0.000000  -0.000006  -0.000315  -0.000005
    19  H    0.000000  -0.000007   0.000000   0.000085   0.000001   0.000000
    20  H    0.000000   0.000000   0.000000   0.000003   0.001462   0.000229
             13         14         15         16         17         18
     1  C    0.000301   0.000008  -0.003022   0.000005   0.000058  -0.000001
     2  O   -0.037058  -0.000080   0.075792  -0.000099  -0.001340  -0.000010
     3  O   -0.000019   0.000000   0.000462   0.000000   0.000000   0.000000
     4  H    0.000314   0.000223  -0.000068   0.000000  -0.000005   0.000000
     5  H    0.000003   0.000000  -0.000006   0.000000  -0.000007   0.000000
     6  C    0.000001   0.000000  -0.000007   0.000006   0.000034   0.000000
     7  O    0.000000   0.000000   0.000006   0.000000   0.000000   0.000000
     8  O   -0.000001   0.000000  -0.000055   0.000354  -0.001293   0.000000
     9  H    0.000000   0.000000   0.000000   0.000000  -0.000013   0.000000
    10  H   -0.000045   0.000000   0.000757  -0.000727   0.014939  -0.000006
    11  C    0.136442   0.365515  -0.009645   0.000151   0.000028  -0.000315
    12  O   -0.087213  -0.058958   0.002181  -0.000001   0.000000  -0.000005
    13  O    8.490770  -0.089776   0.181496   0.001000  -0.001198  -0.022988
    14  H   -0.089776   0.614516   0.003354  -0.000010  -0.000006   0.000064
    15  H    0.181496   0.003354   0.278470   0.000842   0.006935   0.000031
    16  C    0.001000  -0.000010   0.000842   4.665955   0.444551   0.185131
    17  O   -0.001198  -0.000006   0.006935   0.444551   8.122378  -0.090591
    18  O   -0.022988   0.000064   0.000031   0.185131  -0.090591   8.356154
    19  H   -0.000069   0.000000   0.000095   0.365151  -0.064208  -0.092026
    20  H    0.052879  -0.000529  -0.000568  -0.019082   0.003330   0.218892
             19         20
     1  C    0.000000   0.000013
     2  O   -0.000003   0.000134
     3  O    0.000000   0.000000
     4  H    0.000000  -0.000006
     5  H    0.000000   0.000000
     6  C    0.000000   0.000000
     7  O    0.000000   0.000000
     8  O   -0.000007   0.000000
     9  H    0.000000   0.000000
    10  H    0.000085   0.000003
    11  C    0.000001   0.001462
    12  O    0.000000   0.000229
    13  O   -0.000069   0.052879
    14  H    0.000000  -0.000529
    15  H    0.000095  -0.000568
    16  C    0.365151  -0.019082
    17  O   -0.064208   0.003330
    18  O   -0.092026   0.218892
    19  H    0.629115   0.004944
    20  H    0.004944   0.306247
 Mulliken atomic charges:
              1
     1  C    0.401407
     2  O   -0.529746
     3  O   -0.518936
     4  H    0.219395
     5  H    0.436575
     6  C    0.394443
     7  O   -0.472092
     8  O   -0.516260
     9  H    0.182901
    10  H    0.456824
    11  C    0.386305
    12  O   -0.402433
    13  O   -0.624840
    14  H    0.165679
    15  H    0.462950
    16  C    0.356773
    17  O   -0.433592
    18  O   -0.554331
    19  H    0.156924
    20  H    0.432053
 Sum of Mulliken atomic charges =   0.00000
 Mulliken charges with hydrogens summed into heavy atoms:
              1
     1  C    0.620802
     2  O   -0.529746
     3  O   -0.082361
     6  C    0.577345
     7  O   -0.472092
     8  O   -0.059436
    11  C    0.551984
    12  O   -0.402433
    13  O   -0.161889
    16  C    0.513698
    17  O   -0.433592
    18  O   -0.122278
 Sum of Mulliken charges with hydrogens summed into heavy atoms =   0.00000
 Electronic spatial extent (au):  <R**2>=           3096.0991
 Charge=              0.0000 electrons
 Dipole moment (field-independent basis, Debye):
    X=              0.2496    Y=              0.9720    Z=             -0.5260  Tot=              1.1331
 Quadrupole moment (field-independent basis, Debye-Ang):
   XX=            -65.9075   YY=            -74.8220   ZZ=            -67.6875
   XY=             -6.8658   XZ=              2.3248   YZ=              1.5011
 Traceless Quadrupole moment (field-independent basis, Debye-Ang):
   XX=              3.5649   YY=             -5.3497   ZZ=              1.7848
   XY=             -6.8658   XZ=              2.3248   YZ=              1.5011
 Octapole moment (field-independent basis, Debye-Ang**2):
  XXX=              8.7891  YYY=             48.8080  ZZZ=              0.0630  XYY=             -9.6178
  XXY=             12.9911  XXZ=            -11.3016  XZZ=             -0.5676  YZZ=             -1.0403
  YYZ=              1.5586  XYZ=              4.4169
 Hexadecapole moment (field-independent basis, Debye-Ang**3):
 XXXX=          -2172.5061 YYYY=          -1451.0723 ZZZZ=            -87.8873 XXXY=           -235.6359
 XXXZ=             27.6425 YYYX=             70.5987 YYYZ=             22.5371 ZZZX=             -1.0022
 ZZZY=             -0.2400 XXYY=           -634.6903 XXZZ=           -373.8537 YYZZ=           -248.4855
 XXYZ=              8.6208 YYXZ=             15.6744 ZZXY=             -0.5724
 N-N= 7.188394306488D+02 E-N=-3.222368148784D+03  KE= 7.545129504217D+02
 1\1\GINC-LSQC07\FOpt\RB3LYP\6-31G\C4H8O8\LITAO\10-May-2015\0\\#opt b3l
 yp/6-31g\\Title Card Required\\0,1\C,-0.9621831932,-0.1827199296,0.653
 4676515\O,0.150206488,-0.0728095226,0.0656267408\O,-1.9250327093,0.713
 4853535,0.5904035349\H,-1.1940529168,-1.0547298151,1.2633909953\H,-1.7
 067363529,1.5262273931,0.0015056619\C,-0.2459486251,2.8122050699,-1.66
 85190914\O,-1.2743479131,2.6635598919,-0.9770265996\O,0.8585360411,2.0
 731910702,-1.636101525\H,-0.1651183892,3.6132759162,-2.4028066738\H,0.
 8840232923,1.3231355332,-0.9745958128\C,1.2972005428,-2.981598949,1.22
 20729287\O,0.1337370321,-2.962376415,1.6270482722\O,1.878203879,-1.985
 9821499,0.4996769382\H,1.9971586384,-3.8007556255,1.3984184165\H,1.251
 4043405,-1.1975666968,0.300617158\C,4.1227015098,0.2324511575,-0.35087
 38996\O,3.0217694497,0.7941365341,-0.3217526323\O,4.3368903908,-1.0794
 538383,-0.1111831822\H,5.0620386848,0.7418786743,-0.5763992641\H,3.487
 2465105,-1.563936052,0.112355883\\Version=EM64L-G09RevA.01\State=1-A\H
 F=-758.8201119\RMSD=7.972e-09\RMSF=1.997e-05\Dipole=0.3216946,0.022415
 8,-0.3077804\Quadrupole=-5.5427469,3.7990898,1.7436572,-0.5433218,3.75
 31135,-2.02806\PG=C01 [X(C4H8O8)]\\@


 IF YOU GIVE A BOY AND A PIG EVERYTHING THEY WANT,
 YOU'LL GET A BAD BOY AND A GOOD PIG.
 Job cpu time:  0 days  0 hours 24 minutes 17.1 seconds.
 File lengths (MBytes):  RWF=     13 Int=      0 D2E=      0 Chk=      2 Scr=      1
 Normal termination of Gaussian 09 at Sun May 10 10:02:07 2015.
