 Entering Gaussian System, Link 0=g09
 Input=opt-AT-pair.gjf
 Output=opt-AT-pair.log
 Initial command:
 /usr/g09/l1.exe /scratch/litao/gaussian/Gau-32466.inp -scrdir=/scratch/litao/gaussian/
 Entering Link 1 = /usr/g09/l1.exe PID=     32467.
  
 Copyright (c) 1988,1990,1992,1993,1995,1998,2003,2009, Gaussian, Inc.
                  All Rights Reserved.
  
 This is part of the Gaussian(R) 09 program.  It is based on
 the Gaussian(R) 03 system (copyright 2003, Gaussian, Inc.),
 the Gaussian(R) 98 system (copyright 1998, Gaussian, Inc.),
 the Gaussian(R) 94 system (copyright 1995, Gaussian, Inc.),
 the Gaussian 92(TM) system (copyright 1992, Gaussian, Inc.),
 the Gaussian 90(TM) system (copyright 1990, Gaussian, Inc.),
 the Gaussian 88(TM) system (copyright 1988, Gaussian, Inc.),
 the Gaussian 86(TM) system (copyright 1986, Carnegie Mellon
 University), and the Gaussian 82(TM) system (copyright 1983,
 Carnegie Mellon University). Gaussian is a federally registered
 trademark of Gaussian, Inc.
  
 This software contains proprietary and confidential information,
 including trade secrets, belonging to Gaussian, Inc.
  
 This software is provided under written license and may be
 used, copied, transmitted, or stored only in accord with that
 written license.
  
 The following legend is applicable only to US Government
 contracts under FAR:
  
                    RESTRICTED RIGHTS LEGEND
  
 Use, reproduction and disclosure by the US Government is
 subject to restrictions as set forth in subparagraphs (a)
 and (c) of the Commercial Computer Software - Restricted
 Rights clause in FAR 52.227-19.
  
 Gaussian, Inc.
 340 Quinnipiac St., Bldg. 40, Wallingford CT 06492
  
  
 ---------------------------------------------------------------
 Warning -- This program may not be used in any manner that
 competes with the business of Gaussian, Inc. or will provide
 assistance to any competitor of Gaussian, Inc.  The licensee
 of this program is prohibited from giving any competitor of
 Gaussian, Inc. access to this program.  By using this program,
 the user acknowledges that Gaussian, Inc. is engaged in the
 business of creating and licensing software in the field of
 computational chemistry and represents and warrants to the
 licensee that it is not a competitor of Gaussian, Inc. and that
 it will not use this program in any manner prohibited above.
 ---------------------------------------------------------------
  

 Cite this work as:
 Gaussian 09, Revision A.01,
 M. J. Frisch, G. W. Trucks, H. B. Schlegel, G. E. Scuseria, 
 M. A. Robb, J. R. Cheeseman, G. Scalmani, V. Barone, B. Mennucci, 
 G. A. Petersson, H. Nakatsuji, M. Caricato, X. Li, H. P. Hratchian, 
 A. F. Izmaylov, J. Bloino, G. Zheng, J. L. Sonnenberg, M. Hada, 
 M. Ehara, K. Toyota, R. Fukuda, J. Hasegawa, M. Ishida, T. Nakajima, 
 Y. Honda, O. Kitao, H. Nakai, T. Vreven, J. A. Montgomery, Jr., 
 J. E. Peralta, F. Ogliaro, M. Bearpark, J. J. Heyd, E. Brothers, 
 K. N. Kudin, V. N. Staroverov, R. Kobayashi, J. Normand, 
 K. Raghavachari, A. Rendell, J. C. Burant, S. S. Iyengar, J. Tomasi, 
 M. Cossi, N. Rega, J. M. Millam, M. Klene, J. E. Knox, J. B. Cross, 
 V. Bakken, C. Adamo, J. Jaramillo, R. Gomperts, R. E. Stratmann, 
 O. Yazyev, A. J. Austin, R. Cammi, C. Pomelli, J. W. Ochterski, 
 R. L. Martin, K. Morokuma, V. G. Zakrzewski, G. A. Voth, 
 P. Salvador, J. J. Dannenberg, S. Dapprich, A. D. Daniels, 
 O. Farkas, J. B. Foresman, J. V. Ortiz, J. Cioslowski, 
 and D. J. Fox, Gaussian, Inc., Wallingford CT, 2009.
 
 ******************************************
 Gaussian 09:  EM64L-G09RevA.01  8-May-2009
                21-May-2015 
 ******************************************
 %nprocshared=8
 Will use up to    8 processors via shared memory.
 %mem=8GB
 %chk=opt-AT-pair.chk
 ----------------
 #opt b3lyp/6-31g
 ----------------
 1/14=-1,18=20,19=15,26=3,38=1/1,3;
 2/9=110,12=2,17=6,18=5,40=1/2;
 3/5=1,6=6,11=2,16=1,25=1,30=1,71=1,74=-5/1,2,3;
 4//1;
 5/5=2,38=5/2;
 6/7=2,8=2,9=2,10=2,28=1/1;
 7//1,2,3,16;
 1/14=-1,18=20,19=15/3(2);
 2/9=110/2;
 99//99;
 2/9=110/2;
 3/5=1,6=6,11=2,16=1,25=1,30=1,71=1,74=-5/1,2,3;
 4/5=5,16=3/1;
 5/5=2,38=5/2;
 7//1,2,3,16;
 1/14=-1,18=20,19=15/3(-5);
 2/9=110/2;
 6/7=2,8=2,9=2,10=2,19=2,28=1/1;
 99/9=1/99;
 -------------------
 Title Card Required
 -------------------
 Symbolic Z-matrix:
 Charge =  0 Multiplicity = 1
 C                     0.1237   -1.16918  -0.73263 
 N                    -1.00758  -0.98214  -1.4629 
 C                    -1.75283   0.12878  -1.2454 
 C                     0.47459  -0.19403   0.22462 
 C                    -0.38598   0.90917   0.34874 
 N                    -1.51421   1.12156  -0.36129 
 H                    -2.64286   0.22828  -1.85366 
 N                     0.86515  -2.28124  -0.95383 
 H                     0.55796  -2.93785  -1.65246 
 H                     1.70778  -2.44814  -0.4294 
 N                     1.54862  -0.09141   1.11613 
 C                     1.33783   1.04799   1.76129 
 N                     0.1806    1.69565   1.33701 
 H                     1.97345   1.45201   2.53168 
 H                    -0.19149   2.56984   1.6716 
 C                     7.50441   1.94305   0.20315 
 C                     6.53477   0.82072  -0.03264 
 H                     7.82516   1.96852   1.25094 
 H                     7.03654   2.91292  -0.0014 
 H                     8.39119   1.84381  -0.43011 
 C                     5.29281   0.81499   0.74447 
 C                     6.744    -0.18341  -0.92082 
 N                     5.82738  -1.20662  -1.11494 
 H                     7.63951  -0.24075  -1.52733 
 N                     4.42665  -0.26489   0.4756 
 C                     4.61927  -1.30325  -0.42789 
 H                     3.56178  -0.28857   1.00176 
 H                     6.00574  -1.94269  -1.78182 
 O                     3.80635  -2.22589  -0.61179 
 O                     4.97947   1.67658   1.59067 
 

 GradGradGradGradGradGradGradGradGradGradGradGradGradGradGradGradGradGrad
 Berny optimization.
 Initialization pass.
                           ----------------------------
                           !    Initial Parameters    !
                           ! (Angstroms and Degrees)  !
 --------------------------                            --------------------------
 ! Name  Definition              Value          Derivative Info.                !
 --------------------------------------------------------------------------------
 ! R1    R(1,2)                  1.3594         estimate D2E/DX2                !
 ! R2    R(1,4)                  1.4108         estimate D2E/DX2                !
 ! R3    R(1,8)                  1.3548         estimate D2E/DX2                !
 ! R4    R(2,3)                  1.3553         estimate D2E/DX2                !
 ! R5    R(3,6)                  1.3506         estimate D2E/DX2                !
 ! R6    R(3,7)                  1.0826         estimate D2E/DX2                !
 ! R7    R(4,5)                  1.4046         estimate D2E/DX2                !
 ! R8    R(4,11)                 1.3996         estimate D2E/DX2                !
 ! R9    R(5,6)                  1.3499         estimate D2E/DX2                !
 ! R10   R(5,13)                 1.3843         estimate D2E/DX2                !
 ! R11   R(8,9)                  1.0068         estimate D2E/DX2                !
 ! R12   R(8,10)                 1.0064         estimate D2E/DX2                !
 ! R13   R(10,29)                2.1182         estimate D2E/DX2                !
 ! R14   R(11,12)                1.3262         estimate D2E/DX2                !
 ! R15   R(11,27)                2.026          estimate D2E/DX2                !
 ! R16   R(12,13)                1.3924         estimate D2E/DX2                !
 ! R17   R(12,14)                1.0774         estimate D2E/DX2                !
 ! R18   R(13,15)                1.0073         estimate D2E/DX2                !
 ! R19   R(16,17)                1.5018         estimate D2E/DX2                !
 ! R20   R(16,18)                1.0961         estimate D2E/DX2                !
 ! R21   R(16,19)                1.0961         estimate D2E/DX2                !
 ! R22   R(16,20)                1.0942         estimate D2E/DX2                !
 ! R23   R(17,21)                1.4651         estimate D2E/DX2                !
 ! R24   R(17,22)                1.3568         estimate D2E/DX2                !
 ! R25   R(21,25)                1.4102         estimate D2E/DX2                !
 ! R26   R(21,30)                1.2476         estimate D2E/DX2                !
 ! R27   R(22,23)                1.3874         estimate D2E/DX2                !
 ! R28   R(22,24)                1.0831         estimate D2E/DX2                !
 ! R29   R(23,26)                1.3932         estimate D2E/DX2                !
 ! R30   R(23,28)                1.0091         estimate D2E/DX2                !
 ! R31   R(25,26)                1.3898         estimate D2E/DX2                !
 ! R32   R(25,27)                1.0126         estimate D2E/DX2                !
 ! R33   R(26,29)                1.2434         estimate D2E/DX2                !
 ! A1    A(2,1,4)              118.448          estimate D2E/DX2                !
 ! A2    A(2,1,8)              118.7292         estimate D2E/DX2                !
 ! A3    A(4,1,8)              122.8228         estimate D2E/DX2                !
 ! A4    A(1,2,3)              118.9573         estimate D2E/DX2                !
 ! A5    A(2,3,6)              127.6191         estimate D2E/DX2                !
 ! A6    A(2,3,7)              115.9275         estimate D2E/DX2                !
 ! A7    A(6,3,7)              116.4534         estimate D2E/DX2                !
 ! A8    A(1,4,5)              116.7723         estimate D2E/DX2                !
 ! A9    A(1,4,11)             132.3563         estimate D2E/DX2                !
 ! A10   A(5,4,11)             110.8714         estimate D2E/DX2                !
 ! A11   A(4,5,6)              126.0972         estimate D2E/DX2                !
 ! A12   A(4,5,13)             104.9843         estimate D2E/DX2                !
 ! A13   A(6,5,13)             128.9185         estimate D2E/DX2                !
 ! A14   A(3,6,5)              112.1061         estimate D2E/DX2                !
 ! A15   A(1,8,9)              118.7943         estimate D2E/DX2                !
 ! A16   A(1,8,10)             120.6149         estimate D2E/DX2                !
 ! A17   A(9,8,10)             120.5908         estimate D2E/DX2                !
 ! A18   A(8,10,29)            140.1053         estimate D2E/DX2                !
 ! A19   A(4,11,12)            104.5301         estimate D2E/DX2                !
 ! A20   A(4,11,27)            136.007          estimate D2E/DX2                !
 ! A21   A(12,11,27)           105.6045         estimate D2E/DX2                !
 ! A22   A(11,12,13)           112.55           estimate D2E/DX2                !
 ! A23   A(11,12,14)           125.1874         estimate D2E/DX2                !
 ! A24   A(13,12,14)           122.2626         estimate D2E/DX2                !
 ! A25   A(5,13,12)            107.0642         estimate D2E/DX2                !
 ! A26   A(5,13,15)            125.3828         estimate D2E/DX2                !
 ! A27   A(12,13,15)           127.553          estimate D2E/DX2                !
 ! A28   A(17,16,18)           110.8788         estimate D2E/DX2                !
 ! A29   A(17,16,19)           110.8773         estimate D2E/DX2                !
 ! A30   A(17,16,20)           111.384          estimate D2E/DX2                !
 ! A31   A(18,16,19)           106.4245         estimate D2E/DX2                !
 ! A32   A(18,16,20)           108.5539         estimate D2E/DX2                !
 ! A33   A(19,16,20)           108.5535         estimate D2E/DX2                !
 ! A34   A(16,17,21)           117.838          estimate D2E/DX2                !
 ! A35   A(16,17,22)           123.799          estimate D2E/DX2                !
 ! A36   A(21,17,22)           118.3631         estimate D2E/DX2                !
 ! A37   A(17,21,25)           114.9948         estimate D2E/DX2                !
 ! A38   A(17,21,30)           124.7478         estimate D2E/DX2                !
 ! A39   A(25,21,30)           120.2573         estimate D2E/DX2                !
 ! A40   A(17,22,23)           122.379          estimate D2E/DX2                !
 ! A41   A(17,22,24)           122.2253         estimate D2E/DX2                !
 ! A42   A(23,22,24)           115.3958         estimate D2E/DX2                !
 ! A43   A(22,23,26)           123.716          estimate D2E/DX2                !
 ! A44   A(22,23,28)           120.9065         estimate D2E/DX2                !
 ! A45   A(26,23,28)           115.3775         estimate D2E/DX2                !
 ! A46   A(21,25,26)           127.6575         estimate D2E/DX2                !
 ! A47   A(21,25,27)           116.3225         estimate D2E/DX2                !
 ! A48   A(26,25,27)           116.02           estimate D2E/DX2                !
 ! A49   A(23,26,25)           112.8896         estimate D2E/DX2                !
 ! A50   A(23,26,29)           123.0585         estimate D2E/DX2                !
 ! A51   A(25,26,29)           124.0519         estimate D2E/DX2                !
 ! A52   A(11,27,25)           151.1304         estimate D2E/DX2                !
 ! A53   A(10,29,26)           135.4703         estimate D2E/DX2                !
 ! D1    D(4,1,2,3)              0.0003         estimate D2E/DX2                !
 ! D2    D(8,1,2,3)            180.0            estimate D2E/DX2                !
 ! D3    D(2,1,4,5)             -0.0002         estimate D2E/DX2                !
 ! D4    D(2,1,4,11)           179.9997         estimate D2E/DX2                !
 ! D5    D(8,1,4,5)           -179.9999         estimate D2E/DX2                !
 ! D6    D(8,1,4,11)             0.0            estimate D2E/DX2                !
 ! D7    D(2,1,8,9)              0.0002         estimate D2E/DX2                !
 ! D8    D(2,1,8,10)          -179.9999         estimate D2E/DX2                !
 ! D9    D(4,1,8,9)            179.9999         estimate D2E/DX2                !
 ! D10   D(4,1,8,10)            -0.0002         estimate D2E/DX2                !
 ! D11   D(1,2,3,6)              0.0001         estimate D2E/DX2                !
 ! D12   D(1,2,3,7)            179.9994         estimate D2E/DX2                !
 ! D13   D(2,3,6,5)             -0.0004         estimate D2E/DX2                !
 ! D14   D(7,3,6,5)           -179.9997         estimate D2E/DX2                !
 ! D15   D(1,4,5,6)             -0.0001         estimate D2E/DX2                !
 ! D16   D(1,4,5,13)           179.9999         estimate D2E/DX2                !
 ! D17   D(11,4,5,6)           179.9999         estimate D2E/DX2                !
 ! D18   D(11,4,5,13)            0.0            estimate D2E/DX2                !
 ! D19   D(1,4,11,12)         -179.9999         estimate D2E/DX2                !
 ! D20   D(1,4,11,27)           48.0463         estimate D2E/DX2                !
 ! D21   D(5,4,11,12)            0.0            estimate D2E/DX2                !
 ! D22   D(5,4,11,27)         -131.9538         estimate D2E/DX2                !
 ! D23   D(4,5,6,3)              0.0004         estimate D2E/DX2                !
 ! D24   D(13,5,6,3)          -179.9997         estimate D2E/DX2                !
 ! D25   D(4,5,13,12)            0.0            estimate D2E/DX2                !
 ! D26   D(4,5,13,15)          179.9999         estimate D2E/DX2                !
 ! D27   D(6,5,13,12)         -179.9999         estimate D2E/DX2                !
 ! D28   D(6,5,13,15)           -0.0001         estimate D2E/DX2                !
 ! D29   D(1,8,10,29)          -98.275          estimate D2E/DX2                !
 ! D30   D(9,8,10,29)           81.7249         estimate D2E/DX2                !
 ! D31   D(8,10,29,26)          84.19           estimate D2E/DX2                !
 ! D32   D(4,11,12,13)           0.0            estimate D2E/DX2                !
 ! D33   D(4,11,12,14)        -179.9994         estimate D2E/DX2                !
 ! D34   D(27,11,12,13)        147.5673         estimate D2E/DX2                !
 ! D35   D(27,11,12,14)        -32.4322         estimate D2E/DX2                !
 ! D36   D(4,11,27,25)          25.0291         estimate D2E/DX2                !
 ! D37   D(12,11,27,25)       -106.6011         estimate D2E/DX2                !
 ! D38   D(11,12,13,5)           0.0            estimate D2E/DX2                !
 ! D39   D(11,12,13,15)       -179.9998         estimate D2E/DX2                !
 ! D40   D(14,12,13,5)         179.9994         estimate D2E/DX2                !
 ! D41   D(14,12,13,15)         -0.0004         estimate D2E/DX2                !
 ! D42   D(18,16,17,21)         59.0166         estimate D2E/DX2                !
 ! D43   D(18,16,17,22)       -120.9742         estimate D2E/DX2                !
 ! D44   D(19,16,17,21)        -58.9769         estimate D2E/DX2                !
 ! D45   D(19,16,17,22)        121.0323         estimate D2E/DX2                !
 ! D46   D(20,16,17,21)       -179.9794         estimate D2E/DX2                !
 ! D47   D(20,16,17,22)          0.0299         estimate D2E/DX2                !
 ! D48   D(16,17,21,25)       -179.999          estimate D2E/DX2                !
 ! D49   D(16,17,21,30)          0.0127         estimate D2E/DX2                !
 ! D50   D(22,17,21,25)         -0.0078         estimate D2E/DX2                !
 ! D51   D(22,17,21,30)       -179.9961         estimate D2E/DX2                !
 ! D52   D(16,17,22,23)        179.9882         estimate D2E/DX2                !
 ! D53   D(16,17,22,24)         -0.0031         estimate D2E/DX2                !
 ! D54   D(21,17,22,23)         -0.0025         estimate D2E/DX2                !
 ! D55   D(21,17,22,24)       -179.9938         estimate D2E/DX2                !
 ! D56   D(17,21,25,26)          0.0102         estimate D2E/DX2                !
 ! D57   D(17,21,25,27)       -179.9929         estimate D2E/DX2                !
 ! D58   D(30,21,25,26)        179.999          estimate D2E/DX2                !
 ! D59   D(30,21,25,27)         -0.004          estimate D2E/DX2                !
 ! D60   D(17,22,23,26)          0.0124         estimate D2E/DX2                !
 ! D61   D(17,22,23,28)        179.9962         estimate D2E/DX2                !
 ! D62   D(24,22,23,26)       -179.9957         estimate D2E/DX2                !
 ! D63   D(24,22,23,28)         -0.012          estimate D2E/DX2                !
 ! D64   D(22,23,26,25)         -0.0101         estimate D2E/DX2                !
 ! D65   D(22,23,26,29)        179.988          estimate D2E/DX2                !
 ! D66   D(28,23,26,25)       -179.9947         estimate D2E/DX2                !
 ! D67   D(28,23,26,29)          0.0034         estimate D2E/DX2                !
 ! D68   D(21,25,26,23)         -0.0015         estimate D2E/DX2                !
 ! D69   D(21,25,26,29)       -179.9996         estimate D2E/DX2                !
 ! D70   D(27,25,26,23)       -179.9984         estimate D2E/DX2                !
 ! D71   D(27,25,26,29)          0.0035         estimate D2E/DX2                !
 ! D72   D(21,25,27,11)        108.4157         estimate D2E/DX2                !
 ! D73   D(26,25,27,11)        -71.5869         estimate D2E/DX2                !
 ! D74   D(23,26,29,10)       -152.2202         estimate D2E/DX2                !
 ! D75   D(25,26,29,10)         27.7777         estimate D2E/DX2                !
 --------------------------------------------------------------------------------
 Trust Radius=3.00D-01 FncErr=1.00D-07 GrdErr=1.00D-06
 Number of steps in this run= 171 maximum allowed number of steps= 180.
 GradGradGradGradGradGradGradGradGradGradGradGradGradGradGradGradGradGrad

                          Input orientation:                          
 ---------------------------------------------------------------------
 Center     Atomic      Atomic             Coordinates (Angstroms)
 Number     Number       Type             X           Y           Z
 ---------------------------------------------------------------------
      1          6           0        0.123699   -1.169180   -0.732626
      2          7           0       -1.007580   -0.982140   -1.462900
      3          6           0       -1.752830    0.128779   -1.245400
      4          6           0        0.474586   -0.194033    0.224622
      5          6           0       -0.385975    0.909167    0.348742
      6          7           0       -1.514210    1.121560   -0.361290
      7          1           0       -2.642860    0.228279   -1.853660
      8          7           0        0.865153   -2.281240   -0.953827
      9          1           0        0.557962   -2.937850   -1.652460
     10          1           0        1.707780   -2.448140   -0.429395
     11          7           0        1.548620   -0.091411    1.116130
     12          6           0        1.337830    1.047990    1.761290
     13          7           0        0.180600    1.695650    1.337010
     14          1           0        1.973450    1.452010    2.531680
     15          1           0       -0.191489    2.569840    1.671600
     16          6           0        7.504410    1.943050    0.203151
     17          6           0        6.534770    0.820721   -0.032639
     18          1           0        7.825160    1.968520    1.250940
     19          1           0        7.036540    2.912920   -0.001403
     20          1           0        8.391190    1.843810   -0.430112
     21          6           0        5.292810    0.814991    0.744473
     22          6           0        6.744000   -0.183409   -0.920824
     23          7           0        5.827380   -1.206620   -1.114940
     24          1           0        7.639510   -0.240746   -1.527330
     25          7           0        4.426650   -0.264893    0.475595
     26          6           0        4.619270   -1.303250   -0.427888
     27          1           0        3.561780   -0.288572    1.001760
     28          1           0        6.005740   -1.942690   -1.781820
     29          8           0        3.806350   -2.225890   -0.611787
     30          8           0        4.979470    1.676580    1.590670
 ---------------------------------------------------------------------
                    Distance matrix (angstroms):
                    1          2          3          4          5
     1  C    0.000000
     2  N    1.359440   0.000000
     3  C    2.338588   1.355302   0.000000
     4  C    1.410800   2.380265   2.688225   0.000000
     5  C    2.397634   2.691743   2.240220   1.404643   0.000000
     6  N    2.840445   2.428121   1.350631   2.455481   1.349878
     7  H    3.295976   2.071702   1.082605   3.770421   3.226099
     8  N    1.354755   2.335368   3.570300   2.428522   3.666157
     9  H    2.040312   2.512301   3.861304   3.325495   4.437946
    10  H    2.058398   3.254300   4.391150   2.651321   4.032470
    11  N    2.570969   3.738844   4.065081   1.399595   2.309264
    12  C    3.550996   4.474123   4.408777   2.156191   2.232950
    13  N    3.534669   4.052385   3.586374   2.212405   1.384282
    14  H    4.576889   5.546918   5.468312   3.206021   3.259875
    15  H    4.456447   4.807042   4.111624   3.190046   2.132044
    16  C    8.064524   9.153493   9.543918   7.347517   7.959164
    17  C    6.749187   7.885620   8.404397   6.149938   6.931810
    18  H    8.549397   9.699929  10.067485   7.730518   8.328201
    19  H    8.061365   9.056232   9.303332   7.263848   7.696191
    20  H    8.804603   9.868613  10.320231   8.200860   8.861083
    21  C    5.730486   6.913544   7.353334   4.950117   5.693336
    22  C    6.695935   7.811454   8.508756   6.373203   7.324074
    23  N    5.716602   6.847492   7.698045   5.610006   6.724931
    24  H    7.614523   8.679054   9.403833   7.376154   8.321680
    25  N    4.559925   5.814040   6.426723   3.960659   4.955388
    26  C    4.507882   5.730253   6.581998   4.339878   5.527243
    27  H    3.950186   5.237808   5.785239   3.184909   4.176815
    28  H    6.024743   7.085974   8.048238   6.138182   7.316174
    29  O    3.833165   5.044326   6.070454   3.991074   5.322292
    30  O    6.088889   7.227576   7.467452   5.065497   5.560513
                    6          7          8          9         10
     6  N    0.000000
     7  H    2.073396   0.000000
     8  N    4.194224   4.406080   0.000000
     9  H    4.737069   4.506675   1.006773   0.000000
    10  H    4.809222   5.302812   1.006432   1.748652   0.000000
    11  N    3.610401   5.146879   3.089854   4.092518   2.822791
    12  C    3.555965   5.439272   4.321927   5.305545   4.142329
    13  N    2.467019   4.506160   4.640280   5.527084   4.756413
    14  H    4.543374   6.483752   5.226302   6.227480   4.904051
    15  H    2.824845   4.890765   5.616256   6.476550   5.762077
    16  C    9.073530  10.494665   7.953801   8.690202   7.299560
    17  C    8.061302   9.375287   6.528040   7.243819   5.843176
    18  H    9.515275  11.056510   8.447672   9.236578   7.729990
    19  H    8.743787  10.214154   8.122341   8.884226   7.570986
    20  H    9.931935  11.242183   8.598346   9.258394   7.942846
    21  C    6.903059   8.370746   5.663481   6.499838   4.987828
    22  C    8.379383   9.442077   6.242021   6.810969   5.543827
    23  N    7.738692   8.622622   5.079809   5.572509   4.356885
    24  H    9.327707  10.298233   7.098199   7.578809   6.423665
    25  N    6.157633   7.459666   4.335108   5.161401   3.602475
    26  C    6.595735   7.557575   3.914904   4.545956   3.128506
    27  H    5.441696   6.849680   3.881603   4.804839   3.185789
    28  H    8.243615   8.917205   5.217837   5.539437   4.533982
    29  O    6.290988   7.011241   2.961536   3.484525   2.118173
    30  O    6.803387   8.488869   6.250313   7.166630   5.638966
                   11         12         13         14         15
    11  N    0.000000
    12  C    1.326235   0.000000
    13  N    2.261383   1.392357   0.000000
    14  H    2.136916   1.077379   2.168158   0.000000
    15  H    3.227814   2.159372   1.007278   2.583843   0.000000
    16  C    6.359560   6.423055   7.415190   6.021186   7.859775
    17  C    5.197437   5.502546   6.558728   5.270664   7.155865
    18  H    6.607302   6.572160   7.649913   6.012453   8.050168
    19  H    6.355482   6.249828   7.090628   5.846849   7.427048
    20  H    7.277136   7.428692   8.399908   7.079061   8.866041
    21  C    3.870226   4.090241   5.221240   3.823356   5.832375
    22  C    5.581184   6.159282   7.190751   6.111671   7.899497
    23  N    4.952691   5.788957   6.805979   5.934554   7.632381
    24  H    6.641470   7.224059   8.221278   7.172532   8.913871
    25  N    2.953547   3.594090   4.755492   3.632276   5.549175
    26  C    3.644370   4.592241   5.640041   4.832273   6.523195
    27  H    2.026022   2.703560   3.934706   2.809461   4.765106
    28  H    5.629500   6.579299   7.543002   6.810994   8.408013
    29  O    3.555143   4.737444   5.685275   5.173766   6.647977
    30  O    3.888665   3.699429   4.805607   3.157861   5.248169
                   16         17         18         19         20
    16  C    0.000000
    17  C    1.501806   0.000000
    18  H    1.096080   2.151772   0.000000
    19  H    1.096080   2.151754   1.755612   0.000000
    20  H    1.094189   2.156616   1.778167   1.778163   0.000000
    21  C    2.541008   1.465060   2.828416   2.828114   3.469593
    22  C    2.522572   1.356808   3.242879   3.243173   2.657753
    23  N    3.803974   2.404556   4.435090   4.435385   4.043171
    24  H    2.789584   2.140389   3.554449   3.554945   2.472708
    25  N    3.797610   2.425083   4.139947   4.139752   4.580885
    26  C    4.388702   2.887320   4.878593   4.878645   4.912369
    27  H    4.600244   3.337541   4.830421   4.830098   5.469964
    28  H    4.613577   3.312997   5.273091   5.273460   4.674940
    29  O    5.632036   4.130560   6.100300   6.100333   6.133206
    30  O    2.893361   2.405532   2.880729   2.880064   3.968798
                   21         22         23         24         25
    21  C    0.000000
    22  C    2.424040   0.000000
    23  N    2.798230   1.387384   0.000000
    24  H    3.432589   1.083086   2.094467   0.000000
    25  N    1.410205   2.706795   2.319202   3.786127   0.000000
    26  C    2.512973   2.451838   1.393165   3.385194   1.389809
    27  H    2.068940   3.719397   3.233601   4.798590   1.012626
    28  H    3.807260   2.093182   1.009128   2.372885   3.225593
    29  O    3.646363   3.591242   2.318758   4.412724   2.326517
    30  O    1.247625   3.588973   4.043775   4.524807   2.306148
                   26         27         28         29         30
    26  C    0.000000
    27  H    2.047376   0.000000
    28  H    2.040665   4.056768   0.000000
    29  O    1.243351   2.533091   2.507289   0.000000
    30  O    3.617141   2.493688   5.052330   4.632095   0.000000
 Stoichiometry    C10H11N7O2
 Framework group  C1[X(C10H11N7O2)]
 Deg. of freedom    84
 Full point group                 C1      NOp   1
 Largest Abelian subgroup         C1      NOp   1
 Largest concise Abelian subgroup C1      NOp   1
                         Standard orientation:                         
 ---------------------------------------------------------------------
 Center     Atomic      Atomic             Coordinates (Angstroms)
 Number     Number       Type             X           Y           Z
 ---------------------------------------------------------------------
      1          6           0       -2.678058    1.180836   -0.047793
      2          7           0       -3.826924    1.336906    0.662014
      3          6           0       -4.489176    0.234315    1.089284
      4          6           0       -2.222780   -0.128458   -0.310144
      5          6           0       -3.004701   -1.182453    0.190570
      6          7           0       -4.148000   -1.058353    0.897421
      7          1           0       -5.397606    0.415268    1.649682
      8          7           0       -2.019830    2.286109   -0.472610
      9          1           0       -2.399538    3.191810   -0.250979
     10          1           0       -1.166745    2.203525   -1.000181
     11          7           0       -1.105218   -0.618591   -0.995483
     12          6           0       -1.213512   -1.937521   -0.908330
     13          7           0       -2.345034   -2.334778   -0.200867
     14          1           0       -0.519259   -2.646533   -1.327926
     15          1           0       -2.645086   -3.275238   -0.000586
     16          6           0        4.920933   -1.347134    0.901551
     17          6           0        3.871990   -0.359013    0.478752
     18          1           0        5.289652   -1.917526    0.041266
     19          1           0        4.507147   -2.079280    1.604499
     20          1           0        5.770062   -0.848136    1.378236
     21          6           0        2.668566   -0.877183   -0.176741
     22          6           0        3.976384    0.980333    0.668962
     23          7           0        2.988507    1.867213    0.266002
     24          1           0        4.838100    1.430453    1.146366
     25          7           0        1.724001    0.101810   -0.548289
     26          6           0        1.808961    1.476746   -0.364168
     27          1           0        0.884033   -0.234416   -1.003060
     28          1           0        3.089228    2.859624    0.418699
     29          8           0        0.931346    2.282375   -0.720083
     30          8           0        2.449388   -2.082947   -0.410540
 ---------------------------------------------------------------------
 Rotational constants (GHZ):      0.7133232      0.2070484      0.1724351
 Standard basis: 6-31G (6D, 7F)
 There are   193 symmetry adapted basis functions of A   symmetry.
 Integral buffers will be    131072 words long.
 Raffenetti 2 integral format.
 Two-electron integral symmetry is turned on.
   193 basis functions,   462 primitive gaussians,   193 cartesian basis functions
    68 alpha electrons       68 beta electrons
       nuclear repulsion energy      1370.4296181538 Hartrees.
 NAtoms=   30 NActive=   30 NUniq=   30 SFac= 7.50D-01 NAtFMM=   80 NAOKFM=F Big=F
 One-electron integrals computed using PRISM.
 NBasis=   193 RedAO= T  NBF=   193
 NBsUse=   193 1.00D-06 NBFU=   193
 Harris functional with IExCor=  402 diagonalized for initial guess.
 ExpMin= 1.61D-01 ExpMax= 5.48D+03 ExpMxC= 8.25D+02 IAcc=1 IRadAn=         1 AccDes= 0.00D+00
 HarFok:  IExCor=  402 AccDes= 0.00D+00 IRadAn=         1 IDoV= 1
 ScaDFX=  1.000000  1.000000  1.000000  1.000000
 FoFCou: FMM=F IPFlag=           0 FMFlag=      100000 FMFlg1=           0
         NFxFlg=           0 DoJE=T BraDBF=F KetDBF=T FulRan=T
         Omega=  0.000000  0.000000  1.000000  0.000000  0.000000 ICntrl=     500 IOpCl=  0
         NMat0=    1 NMatS0=    1 NMatT0=    0 NMatD0=    1 NMtDS0=    0 NMtDT0=    0
         I1Cent=           4 NGrid=           0.
 Petite list used in FoFCou.
 Initial guess orbital symmetries:
       Occupied  (A) (A) (A) (A) (A) (A) (A) (A) (A) (A) (A) (A)
                 (A) (A) (A) (A) (A) (A) (A) (A) (A) (A) (A) (A)
                 (A) (A) (A) (A) (A) (A) (A) (A) (A) (A) (A) (A)
                 (A) (A) (A) (A) (A) (A) (A) (A) (A) (A) (A) (A)
                 (A) (A) (A) (A) (A) (A) (A) (A) (A) (A) (A) (A)
                 (A) (A) (A) (A) (A) (A) (A) (A)
       Virtual   (A) (A) (A) (A) (A) (A) (A) (A) (A) (A) (A) (A)
                 (A) (A) (A) (A) (A) (A) (A) (A) (A) (A) (A) (A)
                 (A) (A) (A) (A) (A) (A) (A) (A) (A) (A) (A) (A)
                 (A) (A) (A) (A) (A) (A) (A) (A) (A) (A) (A) (A)
                 (A) (A) (A) (A) (A) (A) (A) (A) (A) (A) (A) (A)
                 (A) (A) (A) (A) (A) (A) (A) (A) (A) (A) (A) (A)
                 (A) (A) (A) (A) (A) (A) (A) (A) (A) (A) (A) (A)
                 (A) (A) (A) (A) (A) (A) (A) (A) (A) (A) (A) (A)
                 (A) (A) (A) (A) (A) (A) (A) (A) (A) (A) (A) (A)
                 (A) (A) (A) (A) (A) (A) (A) (A) (A) (A) (A) (A)
                 (A) (A) (A) (A) (A)
 The electronic state of the initial guess is 1-A.
 Requested convergence on RMS density matrix=1.00D-08 within 128 cycles.
 Requested convergence on MAX density matrix=1.00D-06.
 Requested convergence on             energy=1.00D-06.
 No special actions if energy rises.
 Keep R1 ints in memory in canonical form, NReq=179287898.
 Integral accuracy reduced to 1.0D-05 until final iterations.
 Initial convergence to 1.0D-05 achieved.  Increase integral accuracy.
 SCF Done:  E(RB3LYP) =  -921.178537286     A.U. after   16 cycles
             Convg  =    0.7029D-08             -V/T =  2.0056

 **********************************************************************

            Population analysis using the SCF density.

 **********************************************************************

 Orbital symmetries:
       Occupied  (A) (A) (A) (A) (A) (A) (A) (A) (A) (A) (A) (A)
                 (A) (A) (A) (A) (A) (A) (A) (A) (A) (A) (A) (A)
                 (A) (A) (A) (A) (A) (A) (A) (A) (A) (A) (A) (A)
                 (A) (A) (A) (A) (A) (A) (A) (A) (A) (A) (A) (A)
                 (A) (A) (A) (A) (A) (A) (A) (A) (A) (A) (A) (A)
                 (A) (A) (A) (A) (A) (A) (A) (A)
       Virtual   (A) (A) (A) (A) (A) (A) (A) (A) (A) (A) (A) (A)
                 (A) (A) (A) (A) (A) (A) (A) (A) (A) (A) (A) (A)
                 (A) (A) (A) (A) (A) (A) (A) (A) (A) (A) (A) (A)
                 (A) (A) (A) (A) (A) (A) (A) (A) (A) (A) (A) (A)
                 (A) (A) (A) (A) (A) (A) (A) (A) (A) (A) (A) (A)
                 (A) (A) (A) (A) (A) (A) (A) (A) (A) (A) (A) (A)
                 (A) (A) (A) (A) (A) (A) (A) (A) (A) (A) (A) (A)
                 (A) (A) (A) (A) (A) (A) (A) (A) (A) (A) (A) (A)
                 (A) (A) (A) (A) (A) (A) (A) (A) (A) (A) (A) (A)
                 (A) (A) (A) (A) (A) (A) (A) (A) (A) (A) (A) (A)
                 (A) (A) (A) (A) (A)
 The electronic state is 1-A.
 Alpha  occ. eigenvalues --  -19.13821 -19.12965 -14.40916 -14.40121 -14.37988
 Alpha  occ. eigenvalues --  -14.34742 -14.33732 -14.32880 -14.32118 -10.35255
 Alpha  occ. eigenvalues --  -10.31124 -10.27478 -10.26915 -10.26867 -10.26395
 Alpha  occ. eigenvalues --  -10.24676 -10.21931 -10.21840 -10.19173  -1.08699
 Alpha  occ. eigenvalues --   -1.05185  -1.04591  -0.98920  -0.98380  -0.93631
 Alpha  occ. eigenvalues --   -0.93018  -0.89581  -0.86025  -0.82725  -0.77327
 Alpha  occ. eigenvalues --   -0.72496  -0.68526  -0.67066  -0.66983  -0.65393
 Alpha  occ. eigenvalues --   -0.63478  -0.58113  -0.57821  -0.57227  -0.55081
 Alpha  occ. eigenvalues --   -0.52586  -0.51747  -0.50038  -0.48505  -0.47767
 Alpha  occ. eigenvalues --   -0.46664  -0.46210  -0.45061  -0.44015  -0.43114
 Alpha  occ. eigenvalues --   -0.42564  -0.42279  -0.40943  -0.39932  -0.39652
 Alpha  occ. eigenvalues --   -0.39283  -0.36187  -0.35339  -0.31507  -0.29508
 Alpha  occ. eigenvalues --   -0.29472  -0.27985  -0.27612  -0.26763  -0.26426
 Alpha  occ. eigenvalues --   -0.24560  -0.23842  -0.21562
 Alpha virt. eigenvalues --   -0.04448  -0.02261  -0.00064   0.00515   0.03412
 Alpha virt. eigenvalues --    0.05551   0.07777   0.09921   0.10350   0.11250
 Alpha virt. eigenvalues --    0.12409   0.13292   0.15296   0.15723   0.16137
 Alpha virt. eigenvalues --    0.16677   0.17546   0.18130   0.20025   0.20398
 Alpha virt. eigenvalues --    0.20864   0.21687   0.23219   0.24598   0.26777
 Alpha virt. eigenvalues --    0.28238   0.30014   0.31563   0.32498   0.33472
 Alpha virt. eigenvalues --    0.33897   0.36519   0.36925   0.38617   0.39448
 Alpha virt. eigenvalues --    0.45194   0.46256   0.47323   0.47761   0.50537
 Alpha virt. eigenvalues --    0.51992   0.53473   0.53928   0.55188   0.55663
 Alpha virt. eigenvalues --    0.58012   0.58447   0.59591   0.60139   0.61613
 Alpha virt. eigenvalues --    0.62005   0.62533   0.63211   0.63380   0.63885
 Alpha virt. eigenvalues --    0.64550   0.65781   0.66877   0.68165   0.68706
 Alpha virt. eigenvalues --    0.69692   0.70533   0.70900   0.71899   0.71997
 Alpha virt. eigenvalues --    0.73258   0.73763   0.75798   0.76147   0.78458
 Alpha virt. eigenvalues --    0.81085   0.81788   0.82543   0.82710   0.84473
 Alpha virt. eigenvalues --    0.86519   0.87394   0.87558   0.88410   0.88752
 Alpha virt. eigenvalues --    0.90218   0.90832   0.91488   0.91813   0.93892
 Alpha virt. eigenvalues --    0.94452   0.95013   0.96343   0.96664   0.96922
 Alpha virt. eigenvalues --    0.99156   1.02480   1.03809   1.04375   1.05589
 Alpha virt. eigenvalues --    1.06437   1.09243   1.10533   1.11772   1.13362
 Alpha virt. eigenvalues --    1.16450   1.17015   1.18029   1.20234   1.22641
 Alpha virt. eigenvalues --    1.27280   1.29448   1.31535   1.34834   1.39387
 Alpha virt. eigenvalues --    1.42135   1.44611   1.45754   1.47963   1.55631
 Alpha virt. eigenvalues --    1.57590   1.64322   1.64922   1.67118   1.70146
 Alpha virt. eigenvalues --    1.86623   1.93662   1.94867   2.04313   2.09840
          Condensed to atoms (all electrons):
              1          2          3          4          5          6
     1  C    4.940642   0.481884  -0.053323   0.163075  -0.099823  -0.039352
     2  N    0.481884   6.943642   0.388441  -0.089612  -0.050404  -0.086473
     3  C   -0.053323   0.388441   4.873693  -0.052644  -0.058722   0.386696
     4  C    0.163075  -0.089612  -0.052644   5.591181   0.281469  -0.054150
     5  C   -0.099823  -0.050404  -0.058722   0.281469   5.169467   0.381012
     6  N   -0.039352  -0.086473   0.386696  -0.054150   0.381012   6.886298
     7  H    0.006190  -0.066875   0.398075  -0.001257   0.007325  -0.067290
     8  N    0.222198  -0.108355   0.004258  -0.107441   0.006977  -0.000520
     9  H   -0.006628   0.004830   0.000355   0.010326  -0.000098   0.000067
    10  H   -0.017432   0.002594  -0.000135  -0.008797   0.000247  -0.000014
    11  N   -0.030697   0.003357   0.000702   0.323897  -0.087153   0.005535
    12  C    0.006258  -0.000416  -0.000382  -0.074756  -0.110701   0.002956
    13  N    0.010114   0.000399   0.004245  -0.119270   0.157667  -0.060802
    14  H   -0.000164   0.000001   0.000002   0.005084   0.003235  -0.000047
    15  H    0.000013   0.000038   0.000111   0.009929  -0.009055   0.002570
    16  C    0.000000   0.000000   0.000000   0.000000   0.000000   0.000000
    17  C    0.000000   0.000000   0.000000  -0.000003   0.000000   0.000000
    18  H    0.000000   0.000000   0.000000   0.000000   0.000000   0.000000
    19  H    0.000000   0.000000   0.000000   0.000000   0.000000   0.000000
    20  H    0.000000   0.000000   0.000000   0.000000   0.000000   0.000000
    21  C   -0.000002   0.000000   0.000000  -0.000005  -0.000004   0.000000
    22  C    0.000000   0.000000   0.000000   0.000000   0.000000   0.000000
    23  N    0.000002   0.000000   0.000000  -0.000002   0.000000   0.000000
    24  H    0.000000   0.000000   0.000000   0.000000   0.000000   0.000000
    25  N    0.000515   0.000000   0.000000   0.000170  -0.000135   0.000000
    26  C   -0.000010  -0.000001   0.000000   0.000255  -0.000003   0.000000
    27  H   -0.001748  -0.000005   0.000000  -0.000164   0.000725  -0.000005
    28  H    0.000000   0.000000   0.000000   0.000000   0.000000   0.000000
    29  O    0.000536  -0.000001   0.000000  -0.000252  -0.000002   0.000000
    30  O    0.000000   0.000000   0.000000  -0.000012   0.000000   0.000000
              7          8          9         10         11         12
     1  C    0.006190   0.222198  -0.006628  -0.017432  -0.030697   0.006258
     2  N   -0.066875  -0.108355   0.004830   0.002594   0.003357  -0.000416
     3  C    0.398075   0.004258   0.000355  -0.000135   0.000702  -0.000382
     4  C   -0.001257  -0.107441   0.010326  -0.008797   0.323897  -0.074756
     5  C    0.007325   0.006977  -0.000098   0.000247  -0.087153  -0.110701
     6  N   -0.067290  -0.000520   0.000067  -0.000014   0.005535   0.002956
     7  H    0.571029  -0.000028  -0.000036   0.000003   0.000010   0.000001
     8  N   -0.000028   7.148543   0.296016   0.297782   0.001272  -0.000099
     9  H   -0.000036   0.296016   0.386925  -0.018943  -0.000056   0.000007
    10  H    0.000003   0.297782  -0.018943   0.332683   0.003700  -0.000095
    11  N    0.000010   0.001272  -0.000056   0.003700   6.901874   0.438409
    12  C    0.000001  -0.000099   0.000007  -0.000095   0.438409   4.827196
    13  N   -0.000068  -0.000129   0.000002   0.000018  -0.088970   0.262280
    14  H    0.000000  -0.000001   0.000000  -0.000003  -0.035392   0.374397
    15  H   -0.000007   0.000001   0.000000   0.000000   0.002947  -0.014180
    16  C    0.000000   0.000000   0.000000   0.000000   0.000000   0.000000
    17  C    0.000000   0.000000   0.000000  -0.000001  -0.000049   0.000033
    18  H    0.000000   0.000000   0.000000   0.000000   0.000000   0.000000
    19  H    0.000000   0.000000   0.000000   0.000000   0.000000   0.000000
    20  H    0.000000   0.000000   0.000000   0.000000   0.000000   0.000000
    21  C    0.000000   0.000000   0.000000  -0.000008  -0.000657   0.000939
    22  C    0.000000   0.000000   0.000000  -0.000004   0.000001  -0.000002
    23  N    0.000000  -0.000035   0.000000   0.000314  -0.000003   0.000000
    24  H    0.000000   0.000000   0.000000   0.000000   0.000000   0.000000
    25  N    0.000000   0.000073  -0.000003  -0.001051  -0.025815  -0.000511
    26  C    0.000000   0.000626   0.000018   0.000296   0.000777   0.000119
    27  H    0.000000   0.000215   0.000000   0.000540   0.064502  -0.001823
    28  H    0.000000   0.000001   0.000000  -0.000002   0.000001   0.000000
    29  O    0.000000  -0.011162   0.000163   0.035364   0.000134   0.000037
    30  O    0.000000   0.000000   0.000000   0.000000  -0.000456   0.000003
             13         14         15         16         17         18
     1  C    0.010114  -0.000164   0.000013   0.000000   0.000000   0.000000
     2  N    0.000399   0.000001   0.000038   0.000000   0.000000   0.000000
     3  C    0.004245   0.000002   0.000111   0.000000   0.000000   0.000000
     4  C   -0.119270   0.005084   0.009929   0.000000  -0.000003   0.000000
     5  C    0.157667   0.003235  -0.009055   0.000000   0.000000   0.000000
     6  N   -0.060802  -0.000047   0.002570   0.000000   0.000000   0.000000
     7  H   -0.000068   0.000000  -0.000007   0.000000   0.000000   0.000000
     8  N   -0.000129  -0.000001   0.000001   0.000000   0.000000   0.000000
     9  H    0.000002   0.000000   0.000000   0.000000   0.000000   0.000000
    10  H    0.000018  -0.000003   0.000000   0.000000  -0.000001   0.000000
    11  N   -0.088970  -0.035392   0.002947   0.000000  -0.000049   0.000000
    12  C    0.262280   0.374397  -0.014180   0.000000   0.000033   0.000000
    13  N    7.300007  -0.051017   0.299797   0.000000   0.000000   0.000000
    14  H   -0.051017   0.498612   0.000716   0.000000   0.000051   0.000000
    15  H    0.299797   0.000716   0.366176   0.000000   0.000000   0.000000
    16  C    0.000000   0.000000   0.000000   5.084588   0.340264   0.372347
    17  C    0.000000   0.000051   0.000000   0.340264   5.372500  -0.033892
    18  H    0.000000   0.000000   0.000000   0.372347  -0.033892   0.552725
    19  H    0.000000   0.000000   0.000000   0.372369  -0.033953  -0.032552
    20  H    0.000000   0.000000   0.000000   0.362021  -0.039357  -0.029549
    21  C    0.000003   0.000993   0.000000  -0.039477   0.153811  -0.003706
    22  C    0.000000  -0.000001   0.000000  -0.048144   0.529963   0.000312
    23  N    0.000000   0.000000   0.000000   0.004699  -0.028118  -0.000083
    24  H    0.000000   0.000000   0.000000  -0.004337  -0.017225   0.000091
    25  N   -0.000053   0.000000   0.000001   0.006080  -0.174270   0.000077
    26  C   -0.000003   0.000002   0.000000   0.000231  -0.003522  -0.000006
    27  H    0.000511  -0.000476  -0.000014  -0.000052   0.005449   0.000001
    28  H    0.000000   0.000000   0.000000  -0.000095   0.002453   0.000002
    29  O    0.000000   0.000001   0.000000   0.000001   0.000036   0.000000
    30  O    0.000010   0.003680   0.000000   0.005631  -0.122145   0.002632
             19         20         21         22         23         24
     1  C    0.000000   0.000000  -0.000002   0.000000   0.000002   0.000000
     2  N    0.000000   0.000000   0.000000   0.000000   0.000000   0.000000
     3  C    0.000000   0.000000   0.000000   0.000000   0.000000   0.000000
     4  C    0.000000   0.000000  -0.000005   0.000000  -0.000002   0.000000
     5  C    0.000000   0.000000  -0.000004   0.000000   0.000000   0.000000
     6  N    0.000000   0.000000   0.000000   0.000000   0.000000   0.000000
     7  H    0.000000   0.000000   0.000000   0.000000   0.000000   0.000000
     8  N    0.000000   0.000000   0.000000   0.000000  -0.000035   0.000000
     9  H    0.000000   0.000000   0.000000   0.000000   0.000000   0.000000
    10  H    0.000000   0.000000  -0.000008  -0.000004   0.000314   0.000000
    11  N    0.000000   0.000000  -0.000657   0.000001  -0.000003   0.000000
    12  C    0.000000   0.000000   0.000939  -0.000002   0.000000   0.000000
    13  N    0.000000   0.000000   0.000003   0.000000   0.000000   0.000000
    14  H    0.000000   0.000000   0.000993  -0.000001   0.000000   0.000000
    15  H    0.000000   0.000000   0.000000   0.000000   0.000000   0.000000
    16  C    0.372369   0.362021  -0.039477  -0.048144   0.004699  -0.004337
    17  C   -0.033953  -0.039357   0.153811   0.529963  -0.028118  -0.017225
    18  H   -0.032552  -0.029549  -0.003706   0.000312  -0.000083   0.000091
    19  H    0.552650  -0.029514  -0.003646   0.000301  -0.000083   0.000091
    20  H   -0.029514   0.596658   0.006738  -0.005133   0.000128   0.004361
    21  C   -0.003646   0.006738   4.792610  -0.031279  -0.013736   0.003458
    22  C    0.000301  -0.005133  -0.031279   4.932583   0.184463   0.362956
    23  N   -0.000083   0.000128  -0.013736   0.184463   7.464786  -0.049346
    24  H    0.000091   0.004361   0.003458   0.362956  -0.049346   0.529078
    25  N    0.000081  -0.000058   0.017078   0.001022  -0.175940  -0.000289
    26  C   -0.000007  -0.000023   0.006936  -0.029966   0.098574   0.002265
    27  H    0.000000   0.000001  -0.008057  -0.000401   0.002435   0.000010
    28  H    0.000002  -0.000005   0.000033  -0.018687   0.307484  -0.004081
    29  O    0.000000   0.000000  -0.000077   0.001069  -0.105400  -0.000067
    30  O    0.002647   0.000327   0.625894   0.003841  -0.000006  -0.000058
             25         26         27         28         29         30
     1  C    0.000515  -0.000010  -0.001748   0.000000   0.000536   0.000000
     2  N    0.000000  -0.000001  -0.000005   0.000000  -0.000001   0.000000
     3  C    0.000000   0.000000   0.000000   0.000000   0.000000   0.000000
     4  C    0.000170   0.000255  -0.000164   0.000000  -0.000252  -0.000012
     5  C   -0.000135  -0.000003   0.000725   0.000000  -0.000002   0.000000
     6  N    0.000000   0.000000  -0.000005   0.000000   0.000000   0.000000
     7  H    0.000000   0.000000   0.000000   0.000000   0.000000   0.000000
     8  N    0.000073   0.000626   0.000215   0.000001  -0.011162   0.000000
     9  H   -0.000003   0.000018   0.000000   0.000000   0.000163   0.000000
    10  H   -0.001051   0.000296   0.000540  -0.000002   0.035364   0.000000
    11  N   -0.025815   0.000777   0.064502   0.000001   0.000134  -0.000456
    12  C   -0.000511   0.000119  -0.001823   0.000000   0.000037   0.000003
    13  N   -0.000053  -0.000003   0.000511   0.000000   0.000000   0.000010
    14  H    0.000000   0.000002  -0.000476   0.000000   0.000001   0.003680
    15  H    0.000001   0.000000  -0.000014   0.000000   0.000000   0.000000
    16  C    0.006080   0.000231  -0.000052  -0.000095   0.000001   0.005631
    17  C   -0.174270  -0.003522   0.005449   0.002453   0.000036  -0.122145
    18  H    0.000077  -0.000006   0.000001   0.000002   0.000000   0.002632
    19  H    0.000081  -0.000007   0.000000   0.000002   0.000000   0.002647
    20  H   -0.000058  -0.000023   0.000001  -0.000005   0.000000   0.000327
    21  C    0.017078   0.006936  -0.008057   0.000033  -0.000077   0.625894
    22  C    0.001022  -0.029966  -0.000401  -0.018687   0.001069   0.003841
    23  N   -0.175940   0.098574   0.002435   0.307484  -0.105400  -0.000006
    24  H   -0.000289   0.002265   0.000010  -0.004081  -0.000067  -0.000058
    25  N    7.953307   0.092453   0.255085   0.006175  -0.107038  -0.123674
    26  C    0.092453   4.542981  -0.021794  -0.009136   0.604731   0.000672
    27  H    0.255085  -0.021794   0.310753  -0.000018  -0.000843   0.004219
    28  H    0.006175  -0.009136  -0.000018   0.363160   0.004876   0.000004
    29  O   -0.107038   0.604731  -0.000843   0.004876   8.035324  -0.000012
    30  O   -0.123674   0.000672   0.004219   0.000004  -0.000012   8.048668
 Mulliken atomic charges:
              1
     1  C    0.417753
     2  N   -0.423047
     3  C    0.108628
     4  C    0.122978
     5  C    0.407977
     6  N   -0.356484
     7  H    0.152929
     8  N   -0.750192
     9  H    0.327054
    10  H    0.372942
    11  N   -0.477872
    12  C    0.290330
    13  N   -0.714740
    14  H    0.200328
    15  H    0.340959
    16  C   -0.456126
    17  C    0.047976
    18  H    0.171600
    19  H    0.171614
    20  H    0.133405
    21  C    0.492161
    22  C    0.117106
    23  N   -0.690133
    24  H    0.173093
    25  N   -0.723280
    26  C    0.713534
    27  H    0.390952
    28  H    0.347836
    29  O   -0.457417
    30  O   -0.451865
 Sum of Mulliken atomic charges =   0.00000
 Mulliken charges with hydrogens summed into heavy atoms:
              1
     1  C    0.417753
     2  N   -0.423047
     3  C    0.261558
     4  C    0.122978
     5  C    0.407977
     6  N   -0.356484
     8  N   -0.050197
    11  N   -0.477872
    12  C    0.490658
    13  N   -0.373781
    16  C    0.020493
    17  C    0.047976
    21  C    0.492161
    22  C    0.290199
    23  N   -0.342297
    25  N   -0.332328
    26  C    0.713534
    29  O   -0.457417
    30  O   -0.451865
 Sum of Mulliken charges with hydrogens summed into heavy atoms =   0.00000
 Electronic spatial extent (au):  <R**2>=           6055.6349
 Charge=              0.0000 electrons
 Dipole moment (field-independent basis, Debye):
    X=              5.1500    Y=              0.7337    Z=              0.7991  Tot=              5.2630
 Quadrupole moment (field-independent basis, Debye-Ang):
   XX=           -101.8008   YY=            -98.4828   ZZ=           -110.4593
   XY=             16.1660   XZ=             10.7021   YZ=              3.4964
 Traceless Quadrupole moment (field-independent basis, Debye-Ang):
   XX=              1.7801   YY=              5.0982   ZZ=             -6.8783
   XY=             16.1660   XZ=             10.7021   YZ=              3.4964
 Octapole moment (field-independent basis, Debye-Ang**2):
  XXX=            173.8944  YYY=              4.6903  ZZZ=             -4.4803  XYY=             -6.4377
  XXY=             41.9898  XXZ=             14.3323  XZZ=             12.1098  YZZ=              0.3432
  YYZ=             -1.0915  XYZ=              1.5447
 Hexadecapole moment (field-independent basis, Debye-Ang**3):
 XXXX=          -5935.3252 YYYY=          -1302.4076 ZZZZ=           -395.0985 XXXY=             96.5957
 XXXZ=            152.1998 YYYX=            173.7953 YYYZ=             19.7186 ZZZX=             -6.8331
 ZZZY=              2.3856 XXYY=          -1219.3655 XXZZ=          -1081.1876 YYZZ=           -327.2228
 XXYZ=             41.8835 YYXZ=             73.8555 ZZXY=             -8.6343
 N-N= 1.370429618154D+03 E-N=-4.889768958575D+03  KE= 9.160899501626D+02
 Calling FoFJK, ICntrl=      2127 FMM=F ISym2X=0 I1Cent= 0 IOpClX= 0 NMat=1 NMatS=1 NMatT=0.
 ***** Axes restored to original set *****
 -------------------------------------------------------------------
 Center     Atomic                   Forces (Hartrees/Bohr)
 Number     Number              X              Y              Z
 -------------------------------------------------------------------
      1        6           0.005470165   -0.009488332   -0.002758847
      2        7          -0.003922257    0.003013998   -0.000891953
      3        6           0.001027320   -0.001783623   -0.000715662
      4        6          -0.001292617   -0.001132219   -0.002091693
      5        6           0.001535685   -0.002153194    0.000107393
      6        7          -0.000014130    0.000901725    0.000741977
      7        1          -0.000126143    0.000090945   -0.000027793
      8        7          -0.009561740    0.004722681    0.003781068
      9        1           0.000073892    0.000621746   -0.000398008
     10        1           0.008241288    0.000101807   -0.003173624
     11        7          -0.000596758    0.004359314    0.001754261
     12        6          -0.003449130    0.006241550    0.004147689
     13        7           0.002960760   -0.002530797    0.001411946
     14        1           0.001433112    0.000732905   -0.001196792
     15        1           0.000520470    0.000058591    0.000314106
     16        6           0.000391533   -0.000186860   -0.000372088
     17        6           0.000299420    0.001199761    0.000366292
     18        1          -0.000024174   -0.000027913    0.000038697
     19        1          -0.000052414    0.000000805   -0.000012689
     20        1           0.000100095    0.000072813    0.000012544
     21        6          -0.001144537   -0.007324060   -0.005084821
     22        6          -0.000146690    0.000343499    0.000458987
     23        7          -0.001822054   -0.002843807   -0.001177022
     24        1          -0.000040360   -0.000099788   -0.000037072
     25        7           0.013101450   -0.002605846   -0.002532950
     26        6           0.004624774    0.013779997    0.007200720
     27        1          -0.014370686   -0.001626936   -0.000604550
     28        1           0.000483253    0.000125963   -0.000370712
     29        8          -0.002223597   -0.007220553   -0.001788432
     30        8          -0.001475932    0.002655827    0.002899029
 -------------------------------------------------------------------
 Cartesian Forces:  Max     0.014370686 RMS     0.003835098

 GradGradGradGradGradGradGradGradGradGradGradGradGradGradGradGradGradGrad
 Berny optimization.
 Internal  Forces:  Max     0.010610670 RMS     0.001919661
 Search for a local minimum.
 Step number   1 out of a maximum of  171
 All quantities printed in internal units (Hartrees-Bohrs-Radians)
 Mixed Optimization -- RFO/linear search
 Second derivative matrix not updated -- first step.
     Eigenvalues ---    0.00667   0.00742   0.01345   0.01387   0.01460
     Eigenvalues ---    0.01517   0.01608   0.01680   0.01823   0.01844
     Eigenvalues ---    0.01896   0.01990   0.02047   0.02057   0.02109
     Eigenvalues ---    0.02129   0.02151   0.02203   0.02285   0.02312
     Eigenvalues ---    0.02316   0.02330   0.02367   0.02591   0.03775
     Eigenvalues ---    0.03906   0.04942   0.07123   0.07301   0.12795
     Eigenvalues ---    0.13483   0.16000   0.16000   0.16000   0.16000
     Eigenvalues ---    0.16000   0.16000   0.16000   0.16000   0.16000
     Eigenvalues ---    0.17780   0.21000   0.21684   0.22286   0.22922
     Eigenvalues ---    0.23156   0.23379   0.23961   0.24176   0.24583
     Eigenvalues ---    0.25000   0.25000   0.25000   0.32189   0.34119
     Eigenvalues ---    0.34119   0.34333   0.35122   0.35455   0.35624
     Eigenvalues ---    0.35681   0.36313   0.40651   0.41204   0.42107
     Eigenvalues ---    0.43868   0.44761   0.45652   0.45799   0.46119
     Eigenvalues ---    0.46190   0.46431   0.46517   0.46877   0.47306
     Eigenvalues ---    0.50572   0.51866   0.52360   0.53114   0.53999
     Eigenvalues ---    0.54682   0.57664   0.83645   0.841211000.00000
     Eigenvalues --- 1000.000001000.000001000.000001000.000001000.00000
     Eigenvalues --- 1000.000001000.000001000.000001000.000001000.00000
     Eigenvalues --- 1000.000001000.000001000.000001000.000001000.00000
     Eigenvalues --- 1000.000001000.000001000.000001000.000001000.00000
     Eigenvalues --- 1000.000001000.000001000.000001000.000001000.00000
     Eigenvalues --- 1000.000001000.000001000.000001000.000001000.00000
     Eigenvalues --- 1000.000001000.000001000.000001000.000001000.00000
     Eigenvalues --- 1000.000001000.000001000.000001000.000001000.00000
     Eigenvalues --- 1000.000001000.000001000.000001000.000001000.00000
     Eigenvalues --- 1000.000001000.000001000.000001000.000001000.00000
     Eigenvalues --- 1000.000001000.000001000.000001000.000001000.00000
     Eigenvalues --- 1000.000001000.000001000.000001000.000001000.00000
     Eigenvalues --- 1000.000001000.000001000.000001000.000001000.00000
     Eigenvalues --- 1000.000001000.000001000.000001000.000001000.00000
     Eigenvalues --- 1000.000001000.000001000.000001000.000001000.00000
     Eigenvalues --- 1000.00000
 RFO step:  Lambda=-2.83552087D-03 EMin= 6.66878018D-03
 Linear search not attempted -- first point.
 Iteration  1 RMS(Cart)=  0.05184853 RMS(Int)=  0.00094615
 Iteration  2 RMS(Cart)=  0.00233461 RMS(Int)=  0.00016682
 Iteration  3 RMS(Cart)=  0.00000436 RMS(Int)=  0.00016681
 Iteration  4 RMS(Cart)=  0.00000000 RMS(Int)=  0.00016681
 Variable       Old X    -DE/DX   Delta X   Delta X   Delta X     New X
                                 (Linear)    (Quad)   (Total)
    R1        2.56897   0.00346   0.00000   0.00688   0.00687   2.57584
    R2        2.66603   0.00352   0.00000   0.00957   0.00940   2.67542
    R3        2.56012  -0.00462   0.00000  -0.00827  -0.00830   2.55182
    R4        2.56115  -0.00123   0.00000  -0.00270  -0.00261   2.55854
    R5        2.55232   0.00091   0.00000   0.00086   0.00096   2.55328
    R6        2.04583   0.00013   0.00000   0.00035   0.00035   2.04618
    R7        2.65439  -0.00144   0.00000  -0.00203  -0.00217   2.65222
    R8        2.64485   0.00076   0.00000   0.00234   0.00215   2.64700
    R9        2.55090  -0.00015   0.00000  -0.00063  -0.00062   2.55028
   R10        2.61591   0.00219   0.00000   0.00468   0.00478   2.62070
   R11        1.90252  -0.00015   0.00000  -0.00033  -0.00033   1.90220
   R12        1.90188   0.00585   0.00000   0.01218   0.01222   1.91410
   R13        4.00277   0.00011   0.00000  -0.01336  -0.01341   3.98936
   R14        2.50622   0.00387   0.00000   0.00593   0.00592   2.51214
   R15        3.82863  -0.00212   0.00000  -0.03692  -0.03688   3.79175
   R16        2.63117  -0.00446   0.00000  -0.01005  -0.00993   2.62125
   R17        2.03595   0.00027   0.00000   0.00073   0.00073   2.03668
   R18        1.90348  -0.00004   0.00000  -0.00008  -0.00008   1.90340
   R19        2.83800   0.00011   0.00000   0.00032   0.00032   2.83833
   R20        2.07129   0.00003   0.00000   0.00008   0.00008   2.07137
   R21        2.07129   0.00002   0.00000   0.00007   0.00007   2.07136
   R22        2.06772   0.00007   0.00000   0.00020   0.00020   2.06792
   R23        2.76856   0.00051   0.00000   0.00152   0.00153   2.77009
   R24        2.56399  -0.00029   0.00000  -0.00029  -0.00032   2.56367
   R25        2.66490  -0.00413   0.00000  -0.00957  -0.00953   2.65537
   R26        2.35767   0.00417   0.00000   0.00494   0.00494   2.36261
   R27        2.62178  -0.00009   0.00000   0.00000  -0.00004   2.62174
   R28        2.04674  -0.00001   0.00000  -0.00002  -0.00002   2.04672
   R29        2.63270  -0.00087   0.00000  -0.00193  -0.00193   2.63077
   R30        1.90698   0.00024   0.00000   0.00052   0.00052   1.90749
   R31        2.62636  -0.00555   0.00000  -0.01217  -0.01205   2.61431
   R32        1.91358   0.01061   0.00000   0.02463   0.02473   1.93831
   R33        2.34959   0.00683   0.00000   0.00709   0.00709   2.35668
    A1        2.06731  -0.00274   0.00000  -0.01060  -0.01060   2.05671
    A2        2.07221   0.00141   0.00000  -0.00045  -0.00007   2.07215
    A3        2.14366   0.00132   0.00000   0.01105   0.01052   2.15418
    A4        2.07620   0.00049   0.00000   0.00435   0.00425   2.08044
    A5        2.22737   0.00059   0.00000   0.00166   0.00169   2.22907
    A6        2.02332  -0.00020   0.00000  -0.00022  -0.00024   2.02308
    A7        2.03250  -0.00040   0.00000  -0.00144  -0.00146   2.03103
    A8        2.03806   0.00168   0.00000   0.00590   0.00609   2.04415
    A9        2.31005   0.00112   0.00000   0.00953   0.00927   2.31932
   A10        1.93507  -0.00281   0.00000  -0.01543  -0.01536   1.91971
   A11        2.20081  -0.00034   0.00000  -0.00078  -0.00090   2.19991
   A12        1.83232   0.00150   0.00000   0.00696   0.00687   1.83919
   A13        2.25005  -0.00116   0.00000  -0.00618  -0.00600   2.24405
   A14        1.95662   0.00030   0.00000  -0.00054  -0.00057   1.95605
   A15        2.07335  -0.00133   0.00000  -0.01306  -0.01303   2.06032
   A16        2.10513   0.00194   0.00000   0.02166   0.02097   2.12610
   A17        2.10471  -0.00061   0.00000  -0.00860  -0.00857   2.09613
   A18        2.44530   0.00637   0.00000   0.03271   0.03350   2.47880
   A19        1.82439   0.00238   0.00000   0.01572   0.01567   1.84006
   A20        2.37377  -0.00287   0.00000  -0.01161  -0.01233   2.36144
   A21        1.84315   0.00106   0.00000   0.01416   0.01448   1.85762
   A22        1.96437  -0.00226   0.00000  -0.01206  -0.01222   1.95215
   A23        2.18493   0.00072   0.00000   0.00348   0.00351   2.18845
   A24        2.13388   0.00155   0.00000   0.00858   0.00862   2.14251
   A25        1.86862   0.00119   0.00000   0.00482   0.00477   1.87340
   A26        2.18834  -0.00002   0.00000   0.00114   0.00112   2.18946
   A27        2.22622  -0.00117   0.00000  -0.00595  -0.00597   2.22025
   A28        1.93520  -0.00009   0.00000  -0.00062  -0.00062   1.93458
   A29        1.93517  -0.00009   0.00000  -0.00060  -0.00060   1.93457
   A30        1.94402   0.00018   0.00000   0.00125   0.00125   1.94527
   A31        1.85746   0.00004   0.00000  -0.00002  -0.00002   1.85744
   A32        1.89462  -0.00003   0.00000  -0.00008  -0.00008   1.89454
   A33        1.89462  -0.00002   0.00000   0.00003   0.00003   1.89464
   A34        2.05666   0.00116   0.00000   0.00390   0.00389   2.06055
   A35        2.16070  -0.00010   0.00000  -0.00105  -0.00106   2.15964
   A36        2.06583  -0.00106   0.00000  -0.00285  -0.00283   2.06300
   A37        2.00704   0.00146   0.00000   0.00614   0.00621   2.01325
   A38        2.17726  -0.00015   0.00000  -0.00080  -0.00086   2.17640
   A39        2.09889  -0.00130   0.00000  -0.00534  -0.00541   2.09348
   A40        2.13592  -0.00066   0.00000  -0.00125  -0.00127   2.13464
   A41        2.13323   0.00045   0.00000   0.00136   0.00137   2.13460
   A42        2.01404   0.00021   0.00000  -0.00011  -0.00009   2.01394
   A43        2.15925  -0.00143   0.00000  -0.00550  -0.00550   2.15375
   A44        2.11022   0.00018   0.00000  -0.00053  -0.00054   2.10968
   A45        2.01372   0.00125   0.00000   0.00604   0.00604   2.01975
   A46        2.22804  -0.00087   0.00000  -0.00696  -0.00715   2.22090
   A47        2.03021  -0.00015   0.00000  -0.00574  -0.00607   2.02414
   A48        2.02493   0.00103   0.00000   0.01270   0.01241   2.03734
   A49        1.97029   0.00257   0.00000   0.01042   0.01052   1.98082
   A50        2.14778  -0.00335   0.00000  -0.01281  -0.01282   2.13496
   A51        2.16511   0.00078   0.00000   0.00239   0.00230   2.16741
   A52        2.63772   0.00617   0.00000   0.02883   0.02841   2.66613
   A53        2.36440  -0.00224   0.00000  -0.01672  -0.01705   2.34735
    D1        0.00000   0.00037   0.00000   0.00272   0.00267   0.00268
    D2        3.14159   0.00113   0.00000   0.02070   0.02050  -3.12109
    D3        0.00000  -0.00055   0.00000  -0.00855  -0.00846  -0.00846
    D4        3.14159  -0.00090   0.00000  -0.00558  -0.00533   3.13626
    D5       -3.14159  -0.00134   0.00000  -0.02731  -0.02719   3.11441
    D6        0.00000  -0.00170   0.00000  -0.02435  -0.02406  -0.02406
    D7        0.00000  -0.00057   0.00000   0.00753   0.00760   0.00761
    D8       -3.14159  -0.00227   0.00000  -0.03102  -0.03069   3.11090
    D9        3.14159   0.00022   0.00000   0.02634   0.02649  -3.11510
   D10        0.00000  -0.00148   0.00000  -0.01220  -0.01180  -0.01181
   D11        0.00000   0.00011   0.00000   0.00480   0.00474   0.00474
   D12        3.14158  -0.00012   0.00000  -0.00005  -0.00005   3.14153
   D13       -0.00001  -0.00036   0.00000  -0.00522  -0.00515  -0.00516
   D14       -3.14159  -0.00013   0.00000  -0.00035  -0.00035   3.14125
   D15        0.00000   0.00030   0.00000   0.00848   0.00844   0.00843
   D16        3.14159   0.00040   0.00000   0.01656   0.01652  -3.12507
   D17        3.14159   0.00058   0.00000   0.00614   0.00600  -3.13560
   D18        0.00000   0.00068   0.00000   0.01422   0.01408   0.01408
   D19       -3.14159  -0.00066   0.00000  -0.02489  -0.02496   3.11663
   D20        0.83857  -0.00290   0.00000  -0.06286  -0.06271   0.77586
   D21        0.00000  -0.00100   0.00000  -0.02205  -0.02200  -0.02200
   D22       -2.30303  -0.00324   0.00000  -0.06002  -0.05975  -2.36278
   D23        0.00001   0.00013   0.00000  -0.00179  -0.00179  -0.00178
   D24       -3.14159   0.00001   0.00000  -0.01182  -0.01176   3.12984
   D25        0.00000  -0.00010   0.00000  -0.00090  -0.00090  -0.00090
   D26        3.14159  -0.00048   0.00000  -0.01393  -0.01390   3.12769
   D27       -3.14159   0.00000   0.00000   0.00748   0.00746  -3.13413
   D28        0.00000  -0.00037   0.00000  -0.00554  -0.00554  -0.00554
   D29       -1.71522   0.00037   0.00000   0.02645   0.02649  -1.68874
   D30        1.42637  -0.00136   0.00000  -0.01279  -0.01258   1.41379
   D31        1.46939  -0.00214   0.00000   0.03266   0.03255   1.50195
   D32        0.00000   0.00094   0.00000   0.02163   0.02163   0.02163
   D33       -3.14158   0.00132   0.00000   0.03539   0.03540  -3.10618
   D34        2.57553   0.00014   0.00000   0.03317   0.03322   2.60876
   D35       -0.56605   0.00052   0.00000   0.04693   0.04699  -0.51906
   D36        0.43684   0.00143   0.00000   0.13738   0.13748   0.57432
   D37       -1.86054  -0.00120   0.00000   0.09884   0.09928  -1.76126
   D38        0.00000  -0.00055   0.00000  -0.01357  -0.01344  -0.01344
   D39       -3.14159  -0.00016   0.00000  -0.00018  -0.00015   3.14145
   D40        3.14158  -0.00092   0.00000  -0.02687  -0.02678   3.11480
   D41       -0.00001  -0.00053   0.00000  -0.01348  -0.01349  -0.01350
   D42        1.03003   0.00001   0.00000   0.00045   0.00044   1.03047
   D43       -2.11140  -0.00008   0.00000  -0.00241  -0.00240  -2.11379
   D44       -1.02934   0.00007   0.00000   0.00125   0.00124  -1.02810
   D45        2.11241  -0.00002   0.00000  -0.00160  -0.00160   2.11082
   D46       -3.14123   0.00004   0.00000   0.00077   0.00076  -3.14047
   D47        0.00052  -0.00006   0.00000  -0.00208  -0.00207  -0.00155
   D48       -3.14158   0.00002   0.00000   0.00085   0.00085  -3.14072
   D49        0.00022   0.00026   0.00000   0.01200   0.01197   0.01219
   D50       -0.00014   0.00010   0.00000   0.00354   0.00353   0.00339
   D51       -3.14152   0.00035   0.00000   0.01469   0.01465  -3.12688
   D52        3.14139   0.00006   0.00000   0.00207   0.00208  -3.13972
   D53       -0.00005   0.00000   0.00000   0.00053   0.00053   0.00048
   D54       -0.00004  -0.00004   0.00000  -0.00080  -0.00076  -0.00081
   D55       -3.14148  -0.00009   0.00000  -0.00233  -0.00231   3.13939
   D56        0.00018   0.00002   0.00000  -0.00160  -0.00161  -0.00143
   D57       -3.14147   0.00104   0.00000   0.04359   0.04340  -3.09807
   D58        3.14158  -0.00022   0.00000  -0.01221  -0.01216   3.12942
   D59       -0.00007   0.00081   0.00000   0.03298   0.03285   0.03278
   D60        0.00022  -0.00016   0.00000  -0.00448  -0.00446  -0.00424
   D61        3.14153  -0.00005   0.00000  -0.00168  -0.00170   3.13983
   D62       -3.14152  -0.00011   0.00000  -0.00304  -0.00301   3.13866
   D63       -0.00021   0.00000   0.00000  -0.00024  -0.00025  -0.00046
   D64       -0.00018   0.00026   0.00000   0.00609   0.00608   0.00590
   D65        3.14138   0.00012   0.00000   0.00694   0.00683  -3.13497
   D66       -3.14150   0.00015   0.00000   0.00343   0.00346  -3.13804
   D67        0.00006   0.00001   0.00000   0.00427   0.00420   0.00426
   D68       -0.00003  -0.00019   0.00000  -0.00303  -0.00303  -0.00305
   D69       -3.14159  -0.00005   0.00000  -0.00389  -0.00379   3.13781
   D70       -3.14157  -0.00121   0.00000  -0.04809  -0.04833   3.09329
   D71        0.00006  -0.00107   0.00000  -0.04895  -0.04909  -0.04903
   D72        1.89221  -0.00085   0.00000  -0.06592  -0.06579   1.82642
   D73       -1.24943   0.00005   0.00000  -0.02611  -0.02568  -1.27511
   D74       -2.65674  -0.00183   0.00000  -0.02592  -0.02602  -2.68276
   D75        0.48481  -0.00198   0.00000  -0.02498  -0.02519   0.45963
         Item               Value     Threshold  Converged?
 Maximum Force            0.010611     0.000450     NO 
 RMS     Force            0.001920     0.000300     NO 
 Maximum Displacement     0.213252     0.001800     NO 
 RMS     Displacement     0.053052     0.001200     NO 
 Predicted change in Energy=-1.520071D-03
 GradGradGradGradGradGradGradGradGradGradGradGradGradGradGradGradGradGrad

                          Input orientation:                          
 ---------------------------------------------------------------------
 Center     Atomic      Atomic             Coordinates (Angstroms)
 Number     Number       Type             X           Y           Z
 ---------------------------------------------------------------------
      1          6           0        0.112251   -1.196067   -0.701480
      2          7           0       -1.039643   -1.024645   -1.409810
      3          6           0       -1.784359    0.086600   -1.200915
      4          6           0        0.471721   -0.191721    0.229370
      5          6           0       -0.386705    0.912894    0.342169
      6          7           0       -1.530271    1.103716   -0.348574
      7          1           0       -2.688060    0.168570   -1.791713
      8          7           0        0.859945   -2.296087   -0.934699
      9          1           0        0.538946   -2.947517   -1.631723
     10          1           0        1.736995   -2.457319   -0.454332
     11          7           0        1.554159   -0.048570    1.106799
     12          6           0        1.368310    1.121541    1.709723
     13          7           0        0.200035    1.739481    1.288605
     14          1           0        2.035146    1.564858    2.431093
     15          1           0       -0.162965    2.628222    1.593397
     16          6           0        7.501815    1.926445    0.259104
     17          6           0        6.534974    0.808924   -0.009786
     18          1           0        7.823674    1.920065    1.306887
     19          1           0        7.030007    2.900520    0.085763
     20          1           0        8.388381    1.850662   -0.377872
     21          6           0        5.291665    0.771193    0.765795
     22          6           0        6.745810   -0.164548   -0.930853
     23          7           0        5.830650   -1.182558   -1.156510
     24          1           0        7.639605   -0.199773   -1.541545
     25          7           0        4.429718   -0.298156    0.469110
     26          6           0        4.628892   -1.300204   -0.463694
     27          1           0        3.539145   -0.311754    0.977809
     28          1           0        6.008921   -1.895342   -1.848646
     29          8           0        3.823611   -2.227994   -0.678144
     30          8           0        4.967393    1.612366    1.632036
 ---------------------------------------------------------------------
                    Distance matrix (angstroms):
                    1          2          3          4          5
     1  C    0.000000
     2  N    1.363076   0.000000
     3  C    2.343458   1.353921   0.000000
     4  C    1.415773   2.380104   2.685716   0.000000
     5  C    2.405385   2.692547   2.239934   1.403492   0.000000
     6  N    2.848057   2.428345   1.351137   2.453599   1.349549
     7  H    3.300392   2.070481   1.082792   3.768130   3.225478
     8  N    1.350363   2.334680   3.569371   2.436008   3.671796
     9  H    2.028546   2.497725   3.845674   3.326049   4.433492
    10  H    2.071625   3.267294   4.407816   2.683525   4.062370
    11  N    2.581806   3.743508   4.060728   1.400730   2.296960
    12  C    3.572519   4.487297   4.413869   2.172550   2.234685
    13  N    3.547617   4.056924   3.587136   2.219309   1.386813
    14  H    4.597092   5.559891   5.474062   3.221405   3.264050
    15  H    4.468489   4.809496   4.110589   3.196165   2.134943
    16  C    8.079509   9.189706   9.578606   7.342324   7.953799
    17  C    6.763860   7.918135   8.435154   6.149920   6.931401
    18  H    8.556276   9.726774  10.097770   7.724759   8.327989
    19  H    8.078189   9.097412   9.341667   7.252151   7.682709
    20  H    8.825056   9.910597  10.357314   8.198389   8.854378
    21  C    5.731435   6.931360   7.376092   4.944372   5.695913
    22  C    6.717198   7.847448   8.538137   6.380521   7.324905
    23  N    5.736491   6.876774   7.720174   5.623215   6.729967
    24  H    7.639330   8.719352   9.434464   7.383411   8.319138
    25  N    4.562571   5.828554   6.446066   3.966680   4.967966
    26  C    4.524095   5.753552   6.602765   4.357883   5.541067
    27  H    3.917350   5.212892   5.765867   3.159693   4.161262
    28  H    6.047785   7.115683   8.067395   6.154760   7.320512
    29  O    3.852222   5.063065   6.089332   4.025563   5.350979
    30  O    6.074949   7.231261   7.479286   5.043141   5.551521
                    6          7          8          9         10
     6  N    0.000000
     7  H    2.073071   0.000000
     8  N    4.197063   4.404242   0.000000
     9  H    4.726587   4.488783   1.006600   0.000000
    10  H    4.833962   5.316484   1.012899   1.749818   0.000000
    11  N    3.599942   5.142465   3.114640   4.115101   2.876218
    12  C    3.555092   5.442642   4.351044   5.330135   4.198488
    13  N    2.465464   4.505243   4.654500   5.532732   4.797209
    14  H    4.544382   6.487711   5.255146   6.253529   4.959081
    15  H    2.822215   4.887224   5.629070   6.479424   5.802221
    16  C    9.089815  10.541799   7.960488   8.707024   7.277330
    17  C    8.077738   9.415396   6.534716   7.259055   5.821217
    18  H    9.534321  11.098001   8.443587   9.240998   7.701367
    19  H    8.757598  10.267878   8.131159   8.904110   7.550770
    20  H    9.946781  11.292296   8.612952   9.284842   7.924992
    21  C    6.920347   8.401192   5.651551   6.493476   4.954562
    22  C    8.392917   9.478921   6.259942   6.838222   5.529204
    23  N    7.750031   8.648552   5.098731   5.598485   4.344662
    24  H    9.338570  10.337259   7.122259   7.614301   6.412437
    25  N    6.177000   7.482775   4.325008   5.154680   3.572883
    26  C    6.612668   7.580153   3.926652   4.561315   3.114815
    27  H    5.427876   6.832207   3.843615   4.770545   3.146780
    28  H    8.251303   8.938706   5.244793   5.574474   4.528718
    29  O    6.314505   7.027476   2.975530   3.495147   2.111078
    30  O    6.811841   8.509558   6.223766   7.145334   5.599173
                   11         12         13         14         15
    11  N    0.000000
    12  C    1.329367   0.000000
    13  N    2.250296   1.387104   0.000000
    14  H    2.142021   1.077764   2.168734   0.000000
    15  H    3.217220   2.151377   1.007237   2.581505   0.000000
    16  C    6.324071   6.353900   7.376369   5.893450   7.811637
    17  C    5.175961   5.454251   6.533239   5.174725   7.123371
    18  H    6.574373   6.517027   7.625800   5.907374   8.023090
    19  H    6.302742   6.152790   7.031597   5.677429   7.354315
    20  H    7.246925   7.360100   8.356945   6.952379   8.809996
    21  C    3.841516   4.050488   5.209185   3.742731   5.821208
    22  C    5.578415   6.127330   7.169274   6.040189   7.867819
    23  N    4.969595   5.782442   6.798583   5.901275   7.616262
    24  H    6.638466   7.186497   8.192536   7.092654   8.871612
    25  N    2.955974   3.595397   4.765895   3.613057   5.560615
    26  C    3.672467   4.606515   5.650222   4.828653   6.528862
    27  H    2.006508   2.702324   3.931135   2.809933   4.767392
    28  H    5.655982   6.580185   7.536408   6.788228   8.390618
    29  O    3.617502   4.790594   5.721824   5.220315   6.680982
    30  O    3.832068   3.633228   4.781402   3.039543   5.230108
                   16         17         18         19         20
    16  C    0.000000
    17  C    1.501977   0.000000
    18  H    1.096122   2.151513   0.000000
    19  H    1.096117   2.151503   1.755660   0.000000
    20  H    1.094295   2.157736   1.778236   1.778297   0.000000
    21  C    2.544819   1.465867   2.832624   2.831663   3.473166
    22  C    2.521863   1.356638   3.242666   3.241747   2.657988
    23  N    3.802979   2.403549   4.434719   4.433196   4.043351
    24  H    2.789646   2.141020   3.555441   3.554091   2.473679
[...]
 Alpha  occ. eigenvalues --  -10.24750 -10.22270 -10.21832 -10.19097  -1.08242
 Alpha  occ. eigenvalues --   -1.04986  -1.04513  -0.98602  -0.98472  -0.93747
 Alpha  occ. eigenvalues --   -0.92724  -0.89784  -0.86038  -0.82527  -0.77577
 Alpha  occ. eigenvalues --   -0.72328  -0.68141  -0.67165  -0.66933  -0.65519
 Alpha  occ. eigenvalues --   -0.63748  -0.58275  -0.57555  -0.57163  -0.55206
 Alpha  occ. eigenvalues --   -0.52249  -0.51785  -0.50274  -0.48373  -0.47787
 Alpha  occ. eigenvalues --   -0.46958  -0.46466  -0.45232  -0.43837  -0.42948
 Alpha  occ. eigenvalues --   -0.42595  -0.42007  -0.40834  -0.40099  -0.39384
 Alpha  occ. eigenvalues --   -0.39167  -0.35942  -0.35543  -0.31975  -0.29789
 Alpha  occ. eigenvalues --   -0.29325  -0.27861  -0.27569  -0.26963  -0.26230
 Alpha  occ. eigenvalues --   -0.24435  -0.24011  -0.21622
 Alpha virt. eigenvalues --   -0.04263  -0.02439  -0.00094   0.00346   0.03203
 Alpha virt. eigenvalues --    0.05696   0.07658   0.10024   0.10627   0.11489
 Alpha virt. eigenvalues --    0.12785   0.14377   0.15559   0.16026   0.16130
 Alpha virt. eigenvalues --    0.17554   0.18130   0.18208   0.20178   0.20949
 Alpha virt. eigenvalues --    0.21968   0.23295   0.23637   0.24280   0.25961
 Alpha virt. eigenvalues --    0.29311   0.30886   0.32269   0.32856   0.34455
 Alpha virt. eigenvalues --    0.34965   0.36628   0.37279   0.37997   0.41124
 Alpha virt. eigenvalues --    0.46228   0.46666   0.47473   0.47781   0.50380
 Alpha virt. eigenvalues --    0.52475   0.54092   0.54230   0.54305   0.55543
 Alpha virt. eigenvalues --    0.57642   0.58684   0.59513   0.60079   0.61634
 Alpha virt. eigenvalues --    0.61788   0.62323   0.62760   0.63226   0.63724
 Alpha virt. eigenvalues --    0.63932   0.64684   0.65689   0.67184   0.68519
 Alpha virt. eigenvalues --    0.69905   0.70470   0.71286   0.71970   0.72551
 Alpha virt. eigenvalues --    0.73872   0.74078   0.75696   0.77293   0.78199
 Alpha virt. eigenvalues --    0.80904   0.81273   0.82367   0.82556   0.85663
 Alpha virt. eigenvalues --    0.86387   0.87400   0.87710   0.89041   0.89968
 Alpha virt. eigenvalues --    0.90020   0.91702   0.91713   0.93874   0.94710
 Alpha virt. eigenvalues --    0.95794   0.95950   0.96469   0.96834   0.97601
 Alpha virt. eigenvalues --    1.00815   1.02522   1.03268   1.04152   1.05823
 Alpha virt. eigenvalues --    1.07464   1.10265   1.12583   1.14150   1.15795
 Alpha virt. eigenvalues --    1.17660   1.19140   1.20144   1.26748   1.27695
 Alpha virt. eigenvalues --    1.29552   1.31101   1.37413   1.38986   1.41069
 Alpha virt. eigenvalues --    1.44690   1.48202   1.50714   1.53820   1.57871
 Alpha virt. eigenvalues --    1.62438   1.64786   1.67939   1.72036   1.79951
 Alpha virt. eigenvalues --    1.90195   1.94698   1.97566   2.05294   2.09832
          Condensed to atoms (all electrons):
              1          2          3          4          5          6
     1  C    4.916242   0.484228  -0.053099   0.167388  -0.097803  -0.041077
     2  N    0.484228   6.937599   0.388508  -0.086214  -0.049702  -0.085730
     3  C   -0.053099   0.388508   4.872164  -0.051321  -0.059901   0.385334
     4  C    0.167388  -0.086214  -0.051321   5.511109   0.313363  -0.058594
     5  C   -0.097803  -0.049702  -0.059901   0.313363   5.143468   0.384973
     6  N   -0.041077  -0.085730   0.385334  -0.058594   0.384973   6.887466
     7  H    0.006084  -0.067097   0.398355  -0.001243   0.007444  -0.067327
     8  N    0.224653  -0.109475   0.004271  -0.107409   0.005990  -0.000531
     9  H   -0.007267   0.005709   0.000437   0.010545  -0.000097   0.000076
    10  H   -0.011507   0.002074  -0.000099  -0.009596  -0.000016  -0.000011
    11  N   -0.032710   0.003438   0.000743   0.289132  -0.066111   0.006514
    12  C    0.005771  -0.000407  -0.000375  -0.077260  -0.098150   0.002554
    13  N    0.010073   0.000403   0.004363  -0.106843   0.147254  -0.060909
    14  H   -0.000171   0.000001   0.000001   0.004288   0.002909  -0.000046
    15  H    0.000019   0.000037   0.000115   0.009132  -0.008039   0.002663
    16  C    0.000000   0.000000   0.000000   0.000000   0.000000   0.000000
    17  C    0.000000   0.000000   0.000000   0.000001   0.000000   0.000000
    18  H    0.000000   0.000000   0.000000   0.000000   0.000000   0.000000
    19  H    0.000000   0.000000   0.000000   0.000000   0.000000   0.000000
    20  H    0.000000   0.000000   0.000000   0.000000   0.000000   0.000000
    21  C    0.000012   0.000000   0.000000   0.000218  -0.000021   0.000000
    22  C    0.000000   0.000000   0.000000   0.000000   0.000000   0.000000
    23  N    0.000001   0.000000   0.000000  -0.000001   0.000000   0.000000
    24  H    0.000000   0.000000   0.000000   0.000000   0.000000   0.000000
    25  N    0.001221   0.000001   0.000000  -0.000880  -0.000147   0.000000
    26  C   -0.000200  -0.000001   0.000000   0.000116   0.000009   0.000000
    27  H   -0.003875  -0.000011  -0.000001   0.001503   0.001429  -0.000009
    28  H    0.000000   0.000000   0.000000   0.000000   0.000000   0.000000
    29  O    0.000017  -0.000002   0.000000  -0.000051   0.000002   0.000000
    30  O    0.000001   0.000000   0.000000   0.000070  -0.000009   0.000000
              7          8          9         10         11         12
     1  C    0.006084   0.224653  -0.007267  -0.011507  -0.032710   0.005771
     2  N   -0.067097  -0.109475   0.005709   0.002074   0.003438  -0.000407
     3  C    0.398355   0.004271   0.000437  -0.000099   0.000743  -0.000375
     4  C   -0.001243  -0.107409   0.010545  -0.009596   0.289132  -0.077260
     5  C    0.007444   0.005990  -0.000097  -0.000016  -0.066111  -0.098150
     6  N   -0.067327  -0.000531   0.000076  -0.000011   0.006514   0.002554
     7  H    0.570161  -0.000017  -0.000044   0.000002   0.000010   0.000001
     8  N   -0.000017   7.214742   0.293855   0.266371   0.000941  -0.000092
     9  H   -0.000044   0.293855   0.387953  -0.017280  -0.000070   0.000008
    10  H    0.000002   0.266371  -0.017280   0.314208   0.001259  -0.000020
    11  N    0.000010   0.000941  -0.000070   0.001259   7.005363   0.428921
    12  C    0.000001  -0.000092   0.000008  -0.000020   0.428921   4.823627
    13  N   -0.000073  -0.000124   0.000002   0.000010  -0.099674   0.262591
    14  H    0.000000  -0.000001   0.000000  -0.000001  -0.033790   0.361066
    15  H   -0.000007   0.000001   0.000000   0.000000   0.003294  -0.016897
    16  C    0.000000   0.000000   0.000000   0.000000   0.000001   0.000000
    17  C    0.000000   0.000000   0.000000   0.000000  -0.000066   0.000059
    18  H    0.000000   0.000000   0.000000   0.000000   0.000000   0.000000
    19  H    0.000000   0.000000   0.000000   0.000000   0.000000   0.000000
    20  H    0.000000   0.000000   0.000000   0.000000   0.000000   0.000000
    21  C    0.000000   0.000003   0.000000  -0.000013  -0.000516   0.001303
    22  C    0.000000   0.000000   0.000000  -0.000012  -0.000008  -0.000002
    23  N    0.000000  -0.000031   0.000001   0.000620  -0.000017   0.000001
    24  H    0.000000   0.000000   0.000000   0.000000   0.000000   0.000000
    25  N    0.000000  -0.000016  -0.000005  -0.001834  -0.068906   0.000958
    26  C    0.000000  -0.000275   0.000027   0.000844   0.001496   0.000163
    27  H    0.000000   0.001051  -0.000006   0.001002   0.121849  -0.005717
    28  H    0.000000   0.000000   0.000000  -0.000003   0.000001   0.000000
    29  O    0.000000  -0.020064   0.000177   0.063463   0.000169   0.000025
    30  O    0.000000   0.000000   0.000000   0.000000  -0.000496  -0.001164
             13         14         15         16         17         18
     1  C    0.010073  -0.000171   0.000019   0.000000   0.000000   0.000000
     2  N    0.000403   0.000001   0.000037   0.000000   0.000000   0.000000
     3  C    0.004363   0.000001   0.000115   0.000000   0.000000   0.000000
     4  C   -0.106843   0.004288   0.009132   0.000000   0.000001   0.000000
     5  C    0.147254   0.002909  -0.008039   0.000000   0.000000   0.000000
     6  N   -0.060909  -0.000046   0.002663   0.000000   0.000000   0.000000
     7  H   -0.000073   0.000000  -0.000007   0.000000   0.000000   0.000000
     8  N   -0.000124  -0.000001   0.000001   0.000000   0.000000   0.000000
     9  H    0.000002   0.000000   0.000000   0.000000   0.000000   0.000000
    10  H    0.000010  -0.000001   0.000000   0.000000   0.000000   0.000000
    11  N   -0.099674  -0.033790   0.003294   0.000001  -0.000066   0.000000
    12  C    0.262591   0.361066  -0.016897   0.000000   0.000059   0.000000
    13  N    7.295147  -0.042511   0.302068   0.000000   0.000000   0.000000
    14  H   -0.042511   0.468838   0.000561  -0.000001   0.000183   0.000000
    15  H    0.302068   0.000561   0.364331   0.000000   0.000000   0.000000
    16  C    0.000000  -0.000001   0.000000   5.084515   0.339444   0.372140
    17  C    0.000000   0.000183   0.000000   0.339444   5.333648  -0.033918
    18  H    0.000000   0.000000   0.000000   0.372140  -0.033918   0.553322
    19  H    0.000000   0.000000   0.000000   0.372144  -0.033917  -0.032540
    20  H    0.000000   0.000000   0.000000   0.361637  -0.039274  -0.029640
    21  C    0.000035   0.001512   0.000001  -0.037388   0.183359  -0.003620
    22  C    0.000000  -0.000003   0.000000  -0.048787   0.536405   0.000342
    23  N    0.000000   0.000000   0.000000   0.004665  -0.030453  -0.000083
    24  H    0.000000   0.000000   0.000000  -0.004326  -0.017762   0.000091
    25  N   -0.000075  -0.000158   0.000002   0.006296  -0.174756   0.000080
    26  C   -0.000002  -0.000014   0.000000   0.000253  -0.000786  -0.000006
    27  H    0.000634  -0.000266  -0.000017  -0.000009   0.001596   0.000002
    28  H    0.000000   0.000000   0.000000  -0.000092   0.002509   0.000002
    29  O    0.000000   0.000000   0.000000   0.000001   0.000073   0.000000
    30  O    0.000078   0.015766   0.000001   0.005823  -0.118146   0.002731
             19         20         21         22         23         24
     1  C    0.000000   0.000000   0.000012   0.000000   0.000001   0.000000
     2  N    0.000000   0.000000   0.000000   0.000000   0.000000   0.000000
     3  C    0.000000   0.000000   0.000000   0.000000   0.000000   0.000000
     4  C    0.000000   0.000000   0.000218   0.000000  -0.000001   0.000000
     5  C    0.000000   0.000000  -0.000021   0.000000   0.000000   0.000000
     6  N    0.000000   0.000000   0.000000   0.000000   0.000000   0.000000
     7  H    0.000000   0.000000   0.000000   0.000000   0.000000   0.000000
     8  N    0.000000   0.000000   0.000003   0.000000  -0.000031   0.000000
     9  H    0.000000   0.000000   0.000000   0.000000   0.000001   0.000000
    10  H    0.000000   0.000000  -0.000013  -0.000012   0.000620   0.000000
    11  N    0.000000   0.000000  -0.000516  -0.000008  -0.000017   0.000000
    12  C    0.000000   0.000000   0.001303  -0.000002   0.000001   0.000000
    13  N    0.000000   0.000000   0.000035   0.000000   0.000000   0.000000
    14  H    0.000000   0.000000   0.001512  -0.000003   0.000000   0.000000
    15  H    0.000000   0.000000   0.000001   0.000000   0.000000   0.000000
    16  C    0.372144   0.361637  -0.037388  -0.048787   0.004665  -0.004326
    17  C   -0.033917  -0.039274   0.183359   0.536405  -0.030453  -0.017762
    18  H   -0.032540  -0.029640  -0.003620   0.000342  -0.000083   0.000091
    19  H    0.553351  -0.029644  -0.003620   0.000337  -0.000083   0.000091
    20  H   -0.029644   0.597731   0.006600  -0.004980   0.000132   0.004358
    21  C   -0.003620   0.006600   4.776664  -0.035681  -0.010956   0.003472
    22  C    0.000337  -0.004980  -0.035681   4.934181   0.185943   0.363053
    23  N   -0.000083   0.000132  -0.010956   0.185943   7.444289  -0.049401
    24  H    0.000091   0.004358   0.003472   0.363053  -0.049401   0.530346
    25  N    0.000079  -0.000059   0.026234   0.001068  -0.173660  -0.000335
    26  C   -0.000006  -0.000026   0.006655  -0.032791   0.115927   0.002401
    27  H    0.000002   0.000001  -0.014776   0.000016   0.000543   0.000004
    28  H    0.000002  -0.000006   0.000009  -0.018817   0.307081  -0.004017
    29  O    0.000000   0.000000  -0.000233   0.001142  -0.107937  -0.000068
    30  O    0.002724   0.000328   0.605952   0.003653   0.000012  -0.000058
             25         26         27         28         29         30
     1  C    0.001221  -0.000200  -0.003875   0.000000   0.000017   0.000001
     2  N    0.000001  -0.000001  -0.000011   0.000000  -0.000002   0.000000
     3  C    0.000000   0.000000  -0.000001   0.000000   0.000000   0.000000
     4  C   -0.000880   0.000116   0.001503   0.000000  -0.000051   0.000070
     5  C   -0.000147   0.000009   0.001429   0.000000   0.000002  -0.000009
     6  N    0.000000   0.000000  -0.000009   0.000000   0.000000   0.000000
     7  H    0.000000   0.000000   0.000000   0.000000   0.000000   0.000000
     8  N   -0.000016  -0.000275   0.001051   0.000000  -0.020064   0.000000
     9  H   -0.000005   0.000027  -0.000006   0.000000   0.000177   0.000000
    10  H   -0.001834   0.000844   0.001002  -0.000003   0.063463   0.000000
    11  N   -0.068906   0.001496   0.121849   0.000001   0.000169  -0.000496
    12  C    0.000958   0.000163  -0.005717   0.000000   0.000025  -0.001164
    13  N   -0.000075  -0.000002   0.000634   0.000000   0.000000   0.000078
    14  H   -0.000158  -0.000014  -0.000266   0.000000   0.000000   0.015766
    15  H    0.000002   0.000000  -0.000017   0.000000   0.000000   0.000001
    16  C    0.006296   0.000253  -0.000009  -0.000092   0.000001   0.005823
    17  C   -0.174756  -0.000786   0.001596   0.002509   0.000073  -0.118146
    18  H    0.000080  -0.000006   0.000002   0.000002   0.000000   0.002731
    19  H    0.000079  -0.000006   0.000002   0.000002   0.000000   0.002724
    20  H   -0.000059  -0.000026   0.000001  -0.000006   0.000000   0.000328
    21  C    0.026234   0.006655  -0.014776   0.000009  -0.000233   0.605952
    22  C    0.001068  -0.032791   0.000016  -0.018817   0.001142   0.003653
    23  N   -0.173660   0.115927   0.000543   0.307081  -0.107937   0.000012
    24  H   -0.000335   0.002401   0.000004  -0.004017  -0.000068  -0.000058
    25  N    8.035443   0.100143   0.213107   0.006059  -0.108168  -0.122390
    26  C    0.100143   4.540225  -0.016158  -0.008168   0.573285   0.000897
    27  H    0.213107  -0.016158   0.267690   0.000015   0.001070  -0.001052
    28  H    0.006059  -0.008168   0.000015   0.362497   0.005145   0.000004
    29  O   -0.108168   0.573285   0.001070   0.005145   8.075341  -0.000013
    30  O   -0.122390   0.000897  -0.001052   0.000004  -0.000013   8.072895
 Mulliken atomic charges:
              1
     1  C    0.432000
     2  N   -0.423359
     3  C    0.110504
     4  C    0.192546
     5  C    0.373157
     6  N   -0.355346
     7  H    0.153750
     8  N   -0.773845
     9  H    0.325980
    10  H    0.390538
    11  N   -0.560766
    12  C    0.313036
    13  N   -0.712446
    14  H    0.221837
    15  H    0.342737
    16  C   -0.456313
    17  C    0.051801
    18  H    0.171098
    19  H    0.171081
    20  H    0.132843
    21  C    0.494795
    22  C    0.114941
    23  N   -0.686594
    24  H    0.172152
    25  N   -0.739301
    26  C    0.715989
    27  H    0.430386
    28  H    0.347780
    29  O   -0.483374
    30  O   -0.467605
 Sum of Mulliken atomic charges =   0.00000
 Mulliken charges with hydrogens summed into heavy atoms:
              1
     1  C    0.432000
     2  N   -0.423359
     3  C    0.264255
     4  C    0.192546
     5  C    0.373157
     6  N   -0.355346
     8  N   -0.057327
    11  N   -0.560766
    12  C    0.534873
    13  N   -0.369710
    16  C    0.018708
    17  C    0.051801
    21  C    0.494795
    22  C    0.287093
    23  N   -0.338814
    25  N   -0.308915
    26  C    0.715989
    29  O   -0.483374
    30  O   -0.467605
 Sum of Mulliken charges with hydrogens summed into heavy atoms =   0.00000
 Electronic spatial extent (au):  <R**2>=           6283.6832
 Charge=              0.0000 electrons
 Dipole moment (field-independent basis, Debye):
    X=              5.7556    Y=              0.1249    Z=              0.0001  Tot=              5.7569
 Quadrupole moment (field-independent basis, Debye-Ang):
   XX=            -98.1210   YY=            -99.6559   ZZ=           -111.0182
   XY=             16.3043   XZ=              0.0033   YZ=              0.0015
 Traceless Quadrupole moment (field-independent basis, Debye-Ang):
   XX=              4.8107   YY=              3.2758   ZZ=             -8.0865
   XY=             16.3043   XZ=              0.0033   YZ=              0.0015
 Octapole moment (field-independent basis, Debye-Ang**2):
  XXX=            221.8868  YYY=             -7.0237  ZZZ=              0.0004  XYY=             -1.9227
  XXY=             44.0283  XXZ=             -0.0018  XZZ=              5.1267  YZZ=             -0.6466
  YYZ=             -0.0044  XYZ=             -0.0062
 Hexadecapole moment (field-independent basis, Debye-Ang**3):
 XXXX=          -6327.2375 YYYY=          -1371.7468 ZZZZ=           -108.7230 XXXY=            117.1125
 XXXZ=              0.0658 YYYX=            188.1042 YYYZ=              0.0004 ZZZX=              0.0014
 ZZZY=              0.0004 XXYY=          -1287.4949 XXZZ=          -1165.4727 YYZZ=           -294.4456
 XXYZ=              0.0288 YYXZ=              0.0210 ZZXY=             -4.9858
 N-N= 1.369716204606D+03 E-N=-4.888362571408D+03  KE= 9.160631737616D+02
 1\1\GINC-LSQC07\FOpt\RB3LYP\6-31G\C10H11N7O2\LITAO\21-May-2015\0\\#opt
  b3lyp/6-31g\\Title Card Required\\0,1\C,0.0549271872,-1.136274456,-0.
 7316900966\N,-1.2859364464,-1.378850788,-0.8355319014\C,-2.1629139197,
 -0.5320771841,-0.2522465934\C,0.4536799718,0.0116451746,-0.0039649532\
 C,-0.5607494987,0.8067148228,0.551224512\N,-1.8877477024,0.5845421038,
 0.459980736\H,-3.2105199418,-0.7792999188,-0.3707927037\N,0.9097245482
 ,-1.9944421234,-1.3215520538\H,0.5072104983,-2.7775427459,-1.812794817
 9\H,1.9243610516,-1.8918649693,-1.295896721\N,1.701850202,0.5618842879
 ,0.3030744172\C,1.4560319807,1.6528884136,1.0194999088\N,0.0982256278,
 1.844485907,1.1973483757\H,2.2229474722,2.3027080063,1.4100343376\H,-0
 .3509645201,2.5928779447,1.7000387552\C,7.645231596,1.6376583697,0.761
 1461839\C,6.6522245536,0.6746333453,0.1771072597\H,7.5365793755,1.6972
 041003,1.8502587211\H,7.4780050875,2.6507859172,0.377558276\H,8.673052
 6853,1.3423486356,0.5290322685\C,5.225541176,0.9298581857,0.3996889674
 \C,6.9999815213,-0.420177862,-0.5460934219\N,6.0529038548,-1.288764529
 3,-1.0708345726\H,8.0320058022,-0.6755219026,-0.7529004112\N,4.3458642
 757,0.0004471288,-0.1672663162\C,4.6849563019,-1.1091606561,-0.8996358
 01\H,3.3136922112,0.1716967241,-0.0146530299\H,6.3279813559,-2.0985834
 588,-1.6064504646\O,3.8503415421,-1.9127171062,-1.3867852555\O,4.78127
 81502,1.9067012333,1.050458735\\Version=EM64L-G09RevA.01\State=1-A\HF=
 -921.1907031\RMSD=5.726e-09\RMSF=8.215e-06\Dipole=2.2623809,0.1055889,
 -0.0221666\Quadrupole=4.9035026,-1.3694445,-3.5340581,-9.8515842,-6.82
 18237,3.4027334\PG=C01 [X(C10H11N7O2)]\\@


            THE IRISH PIG
 'TWAS AN EVENING IN NOVEMBER,
 AS I VERY WELL REMEMBER
 I WAS STROLLING DOWN THE STREET IN DRUNKEN PRIDE,
 BUT MY KNEES WERE ALL A'FLUTTER
 SO I LANDED IN THE GUTTER,
 AND A PIG CAME UP AND LAY DOWN BY MY SIDE.

 YES, I LAY THERE IN THE GUTTER
 THINKING THOUGHTS I COULD NOT UTTER
 WHEN A COLLEEN PASSING BY DID SOFTLY SAY,
 'YE CAN TELL A MAN THAT BOOZES
 BY THE COMPANY THAT HE CHOOSES.' -
 AT THAT, THE PIG GOT UP AND WALKED AWAY!
     -- THE ECONOMIST, AUGUST 23, 1986
 Job cpu time:  0 days  1 hours 18 minutes  1.5 seconds.
 File lengths (MBytes):  RWF=     23 Int=      0 D2E=      0 Chk=      4 Scr=      1
 Normal termination of Gaussian 09 at Thu May 21 12:49:28 2015.
