30
	Energy: -578055.8889588
C         -2.69191        1.20085       -0.00017
N         -4.04588        1.38607        0.00012
C         -4.86498        0.31116        0.00042
C         -2.21815       -0.13401       -0.00020
C         -3.17782       -1.15797        0.00019
N         -4.51660       -0.99592        0.00054
H         -5.92664        0.52454        0.00068
N         -1.89571        2.28764       -0.00041
H         -2.34911        3.18821       -0.00038
H         -0.87651        2.24408       -0.00025
N         -0.93634       -0.69251       -0.00064
C         -1.10951       -2.00932       -0.00048
N         -2.45168       -2.34179        0.00003
H         -0.30131       -2.72330       -0.00069
H         -2.85042       -3.26676        0.00012
C          5.06517       -1.51276        0.00022
C          4.01067       -0.44382        0.00014
H          4.96282       -2.16157       -0.87733
H          4.96314       -2.16115        0.87812
H          6.07123       -1.08224       -0.00005
C          2.60398       -0.85772        0.00001
C          4.28531        0.88552        0.00017
N          3.28288        1.84567        0.00012
H          5.29820        1.26904        0.00025
N          1.66479        0.18006        0.00006
C          1.92979        1.52630        0.00003
H          0.64619       -0.10358       -0.00026
H          3.50383        2.83033        0.00011
O          1.04389        2.41780        0.00002
O          2.22525       -2.05424       -0.00014
