 Entering Gaussian System, Link 0=g09
 Input=chooh-pair-s-5.gjf
 Output=chooh-pair-s-5.log
 Initial command:
 /usr/g09/l1.exe /scratch/litao/gaussian/Gau-30831.inp -scrdir=/scratch/litao/gaussian/
 Entering Link 1 = /usr/g09/l1.exe PID=     30832.
  
 Copyright (c) 1988,1990,1992,1993,1995,1998,2003,2009, Gaussian, Inc.
                  All Rights Reserved.
  
 This is part of the Gaussian(R) 09 program.  It is based on
 the Gaussian(R) 03 system (copyright 2003, Gaussian, Inc.),
 the Gaussian(R) 98 system (copyright 1998, Gaussian, Inc.),
 the Gaussian(R) 94 system (copyright 1995, Gaussian, Inc.),
 the Gaussian 92(TM) system (copyright 1992, Gaussian, Inc.),
 the Gaussian 90(TM) system (copyright 1990, Gaussian, Inc.),
 the Gaussian 88(TM) system (copyright 1988, Gaussian, Inc.),
 the Gaussian 86(TM) system (copyright 1986, Carnegie Mellon
 University), and the Gaussian 82(TM) system (copyright 1983,
 Carnegie Mellon University). Gaussian is a federally registered
 trademark of Gaussian, Inc.
  
 This software contains proprietary and confidential information,
 including trade secrets, belonging to Gaussian, Inc.
  
 This software is provided under written license and may be
 used, copied, transmitted, or stored only in accord with that
 written license.
  
 The following legend is applicable only to US Government
 contracts under FAR:
  
                    RESTRICTED RIGHTS LEGEND
  
 Use, reproduction and disclosure by the US Government is
 subject to restrictions as set forth in subparagraphs (a)
 and (c) of the Commercial Computer Software - Restricted
 Rights clause in FAR 52.227-19.
  
 Gaussian, Inc.
 340 Quinnipiac St., Bldg. 40, Wallingford CT 06492
  
  
 ---------------------------------------------------------------
 Warning -- This program may not be used in any manner that
 competes with the business of Gaussian, Inc. or will provide
 assistance to any competitor of Gaussian, Inc.  The licensee
 of this program is prohibited from giving any competitor of
 Gaussian, Inc. access to this program.  By using this program,
 the user acknowledges that Gaussian, Inc. is engaged in the
 business of creating and licensing software in the field of
 computational chemistry and represents and warrants to the
 licensee that it is not a competitor of Gaussian, Inc. and that
 it will not use this program in any manner prohibited above.
 ---------------------------------------------------------------
  

 Cite this work as:
 Gaussian 09, Revision A.01,
 M. J. Frisch, G. W. Trucks, H. B. Schlegel, G. E. Scuseria, 
 M. A. Robb, J. R. Cheeseman, G. Scalmani, V. Barone, B. Mennucci, 
 G. A. Petersson, H. Nakatsuji, M. Caricato, X. Li, H. P. Hratchian, 
 A. F. Izmaylov, J. Bloino, G. Zheng, J. L. Sonnenberg, M. Hada, 
 M. Ehara, K. Toyota, R. Fukuda, J. Hasegawa, M. Ishida, T. Nakajima, 
 Y. Honda, O. Kitao, H. Nakai, T. Vreven, J. A. Montgomery, Jr., 
 J. E. Peralta, F. Ogliaro, M. Bearpark, J. J. Heyd, E. Brothers, 
 K. N. Kudin, V. N. Staroverov, R. Kobayashi, J. Normand, 
 K. Raghavachari, A. Rendell, J. C. Burant, S. S. Iyengar, J. Tomasi, 
 M. Cossi, N. Rega, J. M. Millam, M. Klene, J. E. Knox, J. B. Cross, 
 V. Bakken, C. Adamo, J. Jaramillo, R. Gomperts, R. E. Stratmann, 
 O. Yazyev, A. J. Austin, R. Cammi, C. Pomelli, J. W. Ochterski, 
 R. L. Martin, K. Morokuma, V. G. Zakrzewski, G. A. Voth, 
 P. Salvador, J. J. Dannenberg, S. Dapprich, A. D. Daniels, 
 O. Farkas, J. B. Foresman, J. V. Ortiz, J. Cioslowski, 
 and D. J. Fox, Gaussian, Inc., Wallingford CT, 2009.
 
 ******************************************
 Gaussian 09:  EM64L-G09RevA.01  8-May-2009
                11-May-2015 
 ******************************************
 %nprocshared=8
 Will use up to    8 processors via shared memory.
 %mem=8GB
 %chk=chooh-pair-s-5.chk
 ----------------
 #opt b3lyp/6-31g
 ----------------
 1/14=-1,18=20,19=15,26=3,38=1/1,3;
 2/9=110,12=2,17=6,18=5,40=1/2;
 3/5=1,6=6,11=2,16=1,25=1,30=1,71=1,74=-5/1,2,3;
 4//1;
 5/5=2,38=5/2;
 6/7=2,8=2,9=2,10=2,28=1/1;
 7//1,2,3,16;
 1/14=-1,18=20,19=15/3(2);
 2/9=110/2;
 99//99;
 2/9=110/2;
 3/5=1,6=6,11=2,16=1,25=1,30=1,71=1,74=-5/1,2,3;
 4/5=5,16=3/1;
 5/5=2,38=5/2;
 7//1,2,3,16;
 1/14=-1,18=20,19=15/3(-5);
 2/9=110/2;
 6/7=2,8=2,9=2,10=2,19=2,28=1/1;
 99/9=1/99;
 -------------------
 Title Card Required
 -------------------
 Symbolic Z-matrix:
 Charge =  0 Multiplicity = 1
 C                    -0.38537   1.98559   0.28603 
 O                    -0.32078   0.73479   0.12363 
 O                    -0.99119   2.80989  -0.54327 
 H                     0.07012   2.46632   1.15067 
 H                    -1.43204   2.34938  -1.3486 
 C                    -2.18519   0.28517  -2.67089 
 O                    -2.11549   1.51646  -2.47872 
 O                    -1.54222  -0.66998  -2.00655 
 H                    -2.82046  -0.13373  -3.45088 
 H                    -0.91746  -0.37768  -1.28194 
 C                     1.43867   0.24259   2.9122 
 O                     1.1835    1.44719   2.95514 
 O                     1.0595   -0.58997   1.90533 
 H                     2.00095  -0.29546   3.67796 
 H                     0.51743  -0.12738   1.16623 
 C                     1.35319  -2.86306  -0.42478 
 O                     0.77559  -1.88586  -0.91452 
 O                     1.74951  -2.97221   0.86185 
 H                     1.61345  -3.76286  -0.98636 
 H                     1.53228  -2.14911   1.3928 
 C                     3.83584   0.30418  -0.02061 
 O                     4.0345   -0.55605   0.82219 
 O                     2.72928   0.2874   -0.76275 
 H                     4.57204   1.09373  -0.16668 
 H                     2.17828  -0.45196  -0.53141 
 

 GradGradGradGradGradGradGradGradGradGradGradGradGradGradGradGradGradGrad
 Berny optimization.
 Initialization pass.
                           ----------------------------
                           !    Initial Parameters    !
                           ! (Angstroms and Degrees)  !
 --------------------------                            --------------------------
 ! Name  Definition              Value          Derivative Info.                !
 --------------------------------------------------------------------------------
 ! R1    R(1,2)                  1.263          estimate D2E/DX2                !
 ! R2    R(1,3)                  1.3169         estimate D2E/DX2                !
 ! R3    R(1,4)                  1.0891         estimate D2E/DX2                !
 ! R4    R(2,10)                 1.8892         estimate D2E/DX2                !
 ! R5    R(2,15)                 1.5915         estimate D2E/DX2                !
 ! R6    R(3,5)                  1.0271         estimate D2E/DX2                !
 ! R7    R(5,7)                  1.5614         estimate D2E/DX2                !
 ! R8    R(6,7)                  1.2481         estimate D2E/DX2                !
 ! R9    R(6,8)                  1.3293         estimate D2E/DX2                !
 ! R10   R(6,9)                  1.0897         estimate D2E/DX2                !
 ! R11   R(8,10)                 1.0004         estimate D2E/DX2                !
 ! R12   R(11,12)                1.2321         estimate D2E/DX2                !
 ! R13   R(11,13)                1.3604         estimate D2E/DX2                !
 ! R14   R(11,14)                1.0918         estimate D2E/DX2                !
 ! R15   R(13,15)                1.0267         estimate D2E/DX2                !
 ! R16   R(13,20)                1.708          estimate D2E/DX2                !
 ! R17   R(16,17)                1.2363         estimate D2E/DX2                !
 ! R18   R(16,18)                1.3507         estimate D2E/DX2                !
 ! R19   R(16,19)                1.0921         estimate D2E/DX2                !
 ! R20   R(16,25)                2.5506         estimate D2E/DX2                !
 ! R21   R(17,25)                2.0422         estimate D2E/DX2                !
 ! R22   R(18,20)                1.0033         estimate D2E/DX2                !
 ! R23   R(21,22)                1.2206         estimate D2E/DX2                !
 ! R24   R(21,23)                1.3325         estimate D2E/DX2                !
 ! R25   R(21,24)                1.0894         estimate D2E/DX2                !
 ! R26   R(23,25)                0.9507         estimate D2E/DX2                !
 ! A1    A(2,1,3)              124.2265         estimate D2E/DX2                !
 ! A2    A(2,1,4)              121.1881         estimate D2E/DX2                !
 ! A3    A(3,1,4)              114.5854         estimate D2E/DX2                !
 ! A4    A(1,2,10)             131.5057         estimate D2E/DX2                !
 ! A5    A(1,2,15)             118.6335         estimate D2E/DX2                !
 ! A6    A(10,2,15)            109.5563         estimate D2E/DX2                !
 ! A7    A(1,3,5)              114.2404         estimate D2E/DX2                !
 ! A8    A(3,5,7)              174.0025         estimate D2E/DX2                !
 ! A9    A(7,6,8)              127.2196         estimate D2E/DX2                !
 ! A10   A(7,6,9)              121.4659         estimate D2E/DX2                !
 ! A11   A(8,6,9)              111.3145         estimate D2E/DX2                !
 ! A12   A(5,7,6)              131.4613         estimate D2E/DX2                !
 ! A13   A(6,8,10)             117.0073         estimate D2E/DX2                !
 ! A14   A(2,10,8)             155.2529         estimate D2E/DX2                !
 ! A15   A(12,11,13)           124.5003         estimate D2E/DX2                !
 ! A16   A(12,11,14)           124.3346         estimate D2E/DX2                !
 ! A17   A(13,11,14)           111.165          estimate D2E/DX2                !
 ! A18   A(11,13,15)           113.8424         estimate D2E/DX2                !
 ! A19   A(11,13,20)           134.7175         estimate D2E/DX2                !
 ! A20   A(15,13,20)           109.964          estimate D2E/DX2                !
 ! A21   A(2,15,13)            173.5885         estimate D2E/DX2                !
 ! A22   A(17,16,18)           125.3317         estimate D2E/DX2                !
 ! A23   A(17,16,19)           123.9784         estimate D2E/DX2                !
 ! A24   A(18,16,19)           110.6898         estimate D2E/DX2                !
 ! A25   A(18,16,25)            91.2202         estimate D2E/DX2                !
 ! A26   A(19,16,25)           132.8632         estimate D2E/DX2                !
 ! A27   A(16,18,20)           111.9798         estimate D2E/DX2                !
 ! A28   A(13,20,18)           165.3883         estimate D2E/DX2                !
 ! A29   A(22,21,23)           120.7215         estimate D2E/DX2                !
 ! A30   A(22,21,24)           119.5644         estimate D2E/DX2                !
 ! A31   A(23,21,24)           119.7141         estimate D2E/DX2                !
 ! A32   A(21,23,25)           110.8294         estimate D2E/DX2                !
 ! A33   A(16,25,23)           158.8848         estimate D2E/DX2                !
 ! A34   A(17,25,23)           153.9664         estimate D2E/DX2                !
 ! D1    D(3,1,2,10)             3.6081         estimate D2E/DX2                !
 ! D2    D(3,1,2,15)           176.5342         estimate D2E/DX2                !
 ! D3    D(4,1,2,10)          -176.5121         estimate D2E/DX2                !
 ! D4    D(4,1,2,15)            -3.586          estimate D2E/DX2                !
 ! D5    D(2,1,3,5)              0.8402         estimate D2E/DX2                !
 ! D6    D(4,1,3,5)           -179.0467         estimate D2E/DX2                !
 ! D7    D(1,2,10,8)           -36.7285         estimate D2E/DX2                !
 ! D8    D(15,2,10,8)          149.8582         estimate D2E/DX2                !
 ! D9    D(1,2,15,13)           12.8718         estimate D2E/DX2                !
 ! D10   D(10,2,15,13)        -172.7448         estimate D2E/DX2                !
 ! D11   D(1,3,5,7)             26.7619         estimate D2E/DX2                !
 ! D12   D(3,5,7,6)            -24.0458         estimate D2E/DX2                !
 ! D13   D(8,6,7,5)             -8.2214         estimate D2E/DX2                !
 ! D14   D(9,6,7,5)            171.8167         estimate D2E/DX2                !
 ! D15   D(7,6,8,10)            -1.2847         estimate D2E/DX2                !
 ! D16   D(9,6,8,10)           178.6804         estimate D2E/DX2                !
 ! D17   D(6,8,10,2)            33.5239         estimate D2E/DX2                !
 ! D18   D(12,11,13,15)         -0.7556         estimate D2E/DX2                !
 ! D19   D(12,11,13,20)        163.5927         estimate D2E/DX2                !
 ! D20   D(14,11,13,15)        179.3438         estimate D2E/DX2                !
 ! D21   D(14,11,13,20)        -16.3078         estimate D2E/DX2                !
 ! D22   D(11,13,15,2)          -6.0293         estimate D2E/DX2                !
 ! D23   D(20,13,15,2)        -174.2605         estimate D2E/DX2                !
 ! D24   D(11,13,20,18)       -148.3251         estimate D2E/DX2                !
 ! D25   D(15,13,20,18)         16.454          estimate D2E/DX2                !
 ! D26   D(17,16,18,20)         -0.8261         estimate D2E/DX2                !
 ! D27   D(19,16,18,20)        179.1186         estimate D2E/DX2                !
 ! D28   D(25,16,18,20)         41.7813         estimate D2E/DX2                !
 ! D29   D(18,16,25,23)        106.9022         estimate D2E/DX2                !
 ! D30   D(19,16,25,23)        -13.2232         estimate D2E/DX2                !
 ! D31   D(16,18,20,13)         -8.5751         estimate D2E/DX2                !
 ! D32   D(22,21,23,25)         -0.0002         estimate D2E/DX2                !
 ! D33   D(24,21,23,25)        179.9998         estimate D2E/DX2                !
 ! D34   D(21,23,25,16)        -77.2253         estimate D2E/DX2                !
 ! D35   D(21,23,25,17)       -152.6108         estimate D2E/DX2                !
 --------------------------------------------------------------------------------
 Trust Radius=3.00D-01 FncErr=1.00D-07 GrdErr=1.00D-06
 Number of steps in this run= 105 maximum allowed number of steps= 150.
 GradGradGradGradGradGradGradGradGradGradGradGradGradGradGradGradGradGrad

                          Input orientation:                          
 ---------------------------------------------------------------------
 Center     Atomic      Atomic             Coordinates (Angstroms)
 Number     Number       Type             X           Y           Z
 ---------------------------------------------------------------------
      1          6           0       -0.385365    1.985590    0.286030
      2          8           0       -0.320784    0.734787    0.123630
      3          8           0       -0.991191    2.809890   -0.543266
      4          1           0        0.070116    2.466320    1.150670
      5          1           0       -1.432040    2.349380   -1.348600
      6          6           0       -2.185190    0.285168   -2.670890
      7          8           0       -2.115490    1.516460   -2.478720
      8          8           0       -1.542220   -0.669981   -2.006550
      9          1           0       -2.820460   -0.133733   -3.450880
     10          1           0       -0.917463   -0.377678   -1.281940
     11          6           0        1.438670    0.242586    2.912200
     12          8           0        1.183500    1.447190    2.955140
     13          8           0        1.059500   -0.589966    1.905330
     14          1           0        2.000950   -0.295456    3.677960
     15          1           0        0.517428   -0.127375    1.166230
     16          6           0        1.353190   -2.863060   -0.424783
     17          8           0        0.775587   -1.885860   -0.914521
     18          8           0        1.749510   -2.972210    0.861849
     19          1           0        1.613450   -3.762860   -0.986358
     20          1           0        1.532280   -2.149110    1.392800
     21          6           0        3.835840    0.304184   -0.020611
     22          8           0        4.034500   -0.556052    0.822194
     23          8           0        2.729280    0.287404   -0.762745
     24          1           0        4.572040    1.093730   -0.166677
     25          1           0        2.178280   -0.451963   -0.531413
 ---------------------------------------------------------------------
                    Distance matrix (angstroms):
                    1          2          3          4          5
     1  C    0.000000
     2  O    1.262954   0.000000
     3  O    1.316901   2.280405   0.000000
     4  H    1.089113   2.050810   2.028258   0.000000
     5  H    1.974813   2.451380   1.027122   2.918304   0.000000
     6  C    3.856706   3.389323   3.510931   4.944507   2.564499
     7  O    3.295035   3.256410   2.585148   4.341841   1.561419
     8  O    3.694089   2.828948   3.815014   4.733292   3.092180
     9  H    4.938189   4.447452   4.523866   6.024116   3.537392
    10  H    2.885601   1.889241   3.272868   3.870559   2.775982
    11  C    3.641694   3.333776   4.943230   3.149749   5.552835
    12  O    3.142509   3.284484   4.338787   2.352522   5.116363
    13  O    3.367975   2.614309   4.664759   3.299890   5.043371
    14  H    4.733166   4.368651   6.034470   4.212211   6.636783
    15  H    2.460571   1.591520   3.718311   2.632030   4.032259
    16  C    5.199734   4.005927   6.139424   5.703562   5.981678
    17  O    4.216308   3.024496   5.030845   4.868693   4.795758
    18  O    5.428539   4.309630   6.551219   5.699245   6.582375
    19  H    6.217629   5.020176   7.083892   6.763982   6.838546
    20  H    4.690207   3.655339   5.891344   4.847550   6.044740
    21  C    4.554089   4.181357   5.463695   4.497489   5.804907
    22  O    5.126658   4.595950   6.200937   4.995895   6.560255
    23  O    3.699294   3.207601   4.500335   3.934461   4.680978
    24  H    5.057294   4.914554   5.834086   4.887405   6.246805
    25  H    3.630724   2.843023   4.548117   3.973680   4.642168
                    6          7          8          9         10
     6  C    0.000000
     7  O    1.248146   0.000000
     8  O    1.329311   2.309136   0.000000
     9  H    1.089693   2.040886   2.001886   0.000000
    10  H    1.993910   2.540730   1.000411   2.895722   0.000000
    11  C    6.656205   6.581552   5.823451   7.666198   4.850454
    12  O    6.659623   6.357277   6.044033   7.718038   5.069224
    13  O    5.677646   5.808398   4.698740   6.629572   3.756613
    14  H    7.626847   7.624489   6.708798   8.607701   5.755389
    15  H    4.711457   4.787495   3.821401   5.697301   2.848701
    16  C    5.241800   5.952360   3.961689   5.833168   3.473861
    17  O    4.069938   4.730838   2.836039   4.736520   2.296961
    18  O    6.210686   6.800425   4.935935   6.895013   4.294202
    19  H    5.801193   6.633503   4.534859   6.237306   4.237021
    20  H    6.021534   6.459977   4.816218   6.816841   4.036514
    21  C    6.578536   6.552117   5.815194   7.500990   4.964854
    22  O    7.182885   7.281052   6.254165   8.088757   5.383413
    23  O    5.271910   5.284595   4.550753   6.180861   3.743078
    24  H    7.251552   7.088533   6.624197   8.181791   5.791675
    25  H    4.915343   5.109125   4.008202   5.797582   3.186288
                   11         12         13         14         15
    11  C    0.000000
    12  O    1.232082   0.000000
    13  O    1.360404   2.295099   0.000000
    14  H    1.091804   2.056091   2.028616   0.000000
    15  H    2.008474   2.474491   1.026694   2.921964   0.000000
    16  C    4.559364   5.480048   3.268430   4.883102   3.273193
    17  O    4.428742   5.123465   3.116329   5.012163   2.736501
    18  O    3.825634   4.922736   2.690735   3.893419   3.115086
    19  H    5.592218   6.547128   4.328507   5.824853   4.364820
    20  H    2.835057   3.936487   1.707963   2.979537   2.273471
    21  C    3.788351   4.146862   3.495256   4.172028   3.550591
    22  O    3.426993   4.085418   3.166222   3.515485   3.559764
    23  O    3.895241   4.190132   3.267502   4.537626   2.963997
    24  H    4.474588   4.620918   4.412027   4.829242   4.439326
    25  H    3.589971   4.092972   2.684852   4.216013   2.397035
                   16         17         18         19         20
    16  C    0.000000
    17  O    1.236280   0.000000
    18  O    1.350705   2.298733   0.000000
    19  H    1.092127   2.056770   2.014822   0.000000
    20  H    1.960971   2.442461   1.003290   2.875964   0.000000
    21  C    4.044545   3.867883   3.983248   4.734187   3.650037
    22  O    3.750555   3.924931   3.325744   4.406355   3.020684
    23  O    3.454456   2.926265   3.771517   4.207103   3.466379
    24  H    5.107230   4.883675   5.055335   5.745572   4.710427
    25  H    2.550594   2.042151   2.911472   3.389402   2.645793
                   21         22         23         24         25
    21  C    0.000000
    22  O    1.220571   0.000000
    23  O    1.332486   2.219696   0.000000
    24  H    1.089362   1.997147   2.097909   0.000000
    25  H    1.892137   2.299704   0.950673   2.872679   0.000000
 Stoichiometry    C5H10O10
 Framework group  C1[X(C5H10O10)]
 Deg. of freedom    69
 Full point group                 C1      NOp   1
 Largest Abelian subgroup         C1      NOp   1
 Largest concise Abelian subgroup C1      NOp   1
                         Standard orientation:                         
 ---------------------------------------------------------------------
 Center     Atomic      Atomic             Coordinates (Angstroms)
 Number     Number       Type             X           Y           Z
 ---------------------------------------------------------------------
      1          6           0        1.333817    1.857131   -0.030310
      2          8           0        0.962588    0.713330   -0.416264
      3          8           0        2.523850    2.120497    0.468378
      4          1           0        0.668274    2.716966   -0.092778
      5          1           0        3.152370    1.309225    0.510571
      6          6           0        3.778101   -1.125886    0.005249
      7          8           0        4.023140    0.014612    0.449196
      8          8           0        2.606561   -1.588905   -0.419220
      9          1           0        4.556352   -1.884392   -0.074908
     10          1           0        1.825139   -0.966698   -0.363906
     11          6           0       -2.077518    1.756903   -1.301011
     12          8           0       -1.509266    2.801637   -0.979068
     13          8           0       -1.508533    0.522342   -1.247946
     14          1           0       -3.105445    1.701896   -1.664845
     15          1           0       -0.535475    0.527565   -0.920482
     16          6           0       -1.208455   -2.651449   -0.527089
     17          8           0       -0.175388   -2.077544   -0.164055
     18          8           0       -2.252088   -2.061744   -1.149570
     19          1           0       -1.397634   -3.717287   -0.382371
     20          1           0       -2.104521   -1.077946   -1.279789
     21          6           0       -2.305109    0.185727    2.138641
     22          8           0       -3.200323   -0.092199    1.356885
     23          8           0       -1.052267   -0.203335    1.905113
     24          1           0       -2.534237    0.758156    3.036713
     25          1           0       -0.996037   -0.691567    1.091327
 ---------------------------------------------------------------------
 Rotational constants (GHZ):      0.5903033      0.3458760      0.2801020
 Standard basis: 6-31G (6D, 7F)
 There are   155 symmetry adapted basis functions of A   symmetry.
 Integral buffers will be    131072 words long.
 Raffenetti 2 integral format.
 Two-electron integral symmetry is turned on.
   155 basis functions,   370 primitive gaussians,   155 cartesian basis functions
    60 alpha electrons       60 beta electrons
       nuclear repulsion energy      1077.5022111119 Hartrees.
 NAtoms=   25 NActive=   25 NUniq=   25 SFac= 7.50D-01 NAtFMM=   80 NAOKFM=F Big=F
 One-electron integrals computed using PRISM.
 NBasis=   155 RedAO= T  NBF=   155
 NBsUse=   155 1.00D-06 NBFU=   155
 Harris functional with IExCor=  402 diagonalized for initial guess.
 ExpMin= 1.61D-01 ExpMax= 5.48D+03 ExpMxC= 8.25D+02 IAcc=1 IRadAn=         1 AccDes= 0.00D+00
 HarFok:  IExCor=  402 AccDes= 0.00D+00 IRadAn=         1 IDoV= 1
 ScaDFX=  1.000000  1.000000  1.000000  1.000000
 FoFCou: FMM=F IPFlag=           0 FMFlag=      100000 FMFlg1=           0
         NFxFlg=           0 DoJE=T BraDBF=F KetDBF=T FulRan=T
         Omega=  0.000000  0.000000  1.000000  0.000000  0.000000 ICntrl=     500 IOpCl=  0
         NMat0=    1 NMatS0=    1 NMatT0=    0 NMatD0=    1 NMtDS0=    0 NMtDT0=    0
         I1Cent=           4 NGrid=           0.
 Petite list used in FoFCou.
 Initial guess orbital symmetries:
       Occupied  (A) (A) (A) (A) (A) (A) (A) (A) (A) (A) (A) (A)
                 (A) (A) (A) (A) (A) (A) (A) (A) (A) (A) (A) (A)
                 (A) (A) (A) (A) (A) (A) (A) (A) (A) (A) (A) (A)
                 (A) (A) (A) (A) (A) (A) (A) (A) (A) (A) (A) (A)
                 (A) (A) (A) (A) (A) (A) (A) (A) (A) (A) (A) (A)
       Virtual   (A) (A) (A) (A) (A) (A) (A) (A) (A) (A) (A) (A)
                 (A) (A) (A) (A) (A) (A) (A) (A) (A) (A) (A) (A)
                 (A) (A) (A) (A) (A) (A) (A) (A) (A) (A) (A) (A)
                 (A) (A) (A) (A) (A) (A) (A) (A) (A) (A) (A) (A)
                 (A) (A) (A) (A) (A) (A) (A) (A) (A) (A) (A) (A)
                 (A) (A) (A) (A) (A) (A) (A) (A) (A) (A) (A) (A)
                 (A) (A) (A) (A) (A) (A) (A) (A) (A) (A) (A) (A)
                 (A) (A) (A) (A) (A) (A) (A) (A) (A) (A) (A)
 The electronic state of the initial guess is 1-A.
 Requested convergence on RMS density matrix=1.00D-08 within 128 cycles.
 Requested convergence on MAX density matrix=1.00D-06.
 Requested convergence on             energy=1.00D-06.
 No special actions if energy rises.
 Keep R1 ints in memory in canonical form, NReq=75293874.
 Integral accuracy reduced to 1.0D-05 until final iterations.
 Initial convergence to 1.0D-05 achieved.  Increase integral accuracy.
 SCF Done:  E(RB3LYP) =  -948.508818743     A.U. after   15 cycles
             Convg  =    0.9698D-08             -V/T =  2.0055

 **********************************************************************

            Population analysis using the SCF density.

 **********************************************************************

 Orbital symmetries:
       Occupied  (A) (A) (A) (A) (A) (A) (A) (A) (A) (A) (A) (A)
                 (A) (A) (A) (A) (A) (A) (A) (A) (A) (A) (A) (A)
                 (A) (A) (A) (A) (A) (A) (A) (A) (A) (A) (A) (A)
                 (A) (A) (A) (A) (A) (A) (A) (A) (A) (A) (A) (A)
                 (A) (A) (A) (A) (A) (A) (A) (A) (A) (A) (A) (A)
       Virtual   (A) (A) (A) (A) (A) (A) (A) (A) (A) (A) (A) (A)
                 (A) (A) (A) (A) (A) (A) (A) (A) (A) (A) (A) (A)
                 (A) (A) (A) (A) (A) (A) (A) (A) (A) (A) (A) (A)
                 (A) (A) (A) (A) (A) (A) (A) (A) (A) (A) (A) (A)
                 (A) (A) (A) (A) (A) (A) (A) (A) (A) (A) (A) (A)
                 (A) (A) (A) (A) (A) (A) (A) (A) (A) (A) (A) (A)
                 (A) (A) (A) (A) (A) (A) (A) (A) (A) (A) (A) (A)
                 (A) (A) (A) (A) (A) (A) (A) (A) (A) (A) (A)
 The electronic state is 1-A.
 Alpha  occ. eigenvalues --  -19.21816 -19.21616 -19.21491 -19.20087 -19.20057
 Alpha  occ. eigenvalues --  -19.19941 -19.19051 -19.17614 -19.17504 -19.15306
 Alpha  occ. eigenvalues --  -10.36668 -10.36654 -10.35318 -10.35019 -10.33542
 Alpha  occ. eigenvalues --   -1.15323  -1.14430  -1.14233  -1.13438  -1.12835
 Alpha  occ. eigenvalues --   -1.06783  -1.05730  -1.05029  -1.04527  -1.04123
 Alpha  occ. eigenvalues --   -0.70881  -0.69023  -0.68277  -0.67962  -0.67375
 Alpha  occ. eigenvalues --   -0.58337  -0.55498  -0.55309  -0.54954  -0.54251
 Alpha  occ. eigenvalues --   -0.52741  -0.50961  -0.49656  -0.49122  -0.47990
 Alpha  occ. eigenvalues --   -0.47859  -0.47153  -0.46704  -0.46129  -0.45216
 Alpha  occ. eigenvalues --   -0.42709  -0.42571  -0.39267  -0.38814  -0.37722
 Alpha  occ. eigenvalues --   -0.35688  -0.34774  -0.34390  -0.33771  -0.33521
 Alpha  occ. eigenvalues --   -0.32593  -0.32049  -0.30969  -0.30345  -0.28676
 Alpha virt. eigenvalues --   -0.05013  -0.04274  -0.03494  -0.03182  -0.01473
 Alpha virt. eigenvalues --    0.07638   0.10050   0.10829   0.11690   0.12652
 Alpha virt. eigenvalues --    0.13065   0.13682   0.15781   0.16173   0.19019
 Alpha virt. eigenvalues --    0.22561   0.23838   0.24836   0.25664   0.25998
 Alpha virt. eigenvalues --    0.27347   0.27817   0.30569   0.31032   0.34885
 Alpha virt. eigenvalues --    0.44696   0.48363   0.49385   0.50217   0.50816
 Alpha virt. eigenvalues --    0.52004   0.54062   0.55742   0.56447   0.57936
 Alpha virt. eigenvalues --    0.59944   0.62806   0.64347   0.66041   0.67430
 Alpha virt. eigenvalues --    0.68885   0.70612   0.71103   0.72021   0.74372
 Alpha virt. eigenvalues --    0.76187   0.76396   0.78766   0.81248   0.81612
 Alpha virt. eigenvalues --    0.83644   0.84568   0.85296   0.85630   0.85923
 Alpha virt. eigenvalues --    0.87123   0.88390   0.89719   0.90924   0.93170
 Alpha virt. eigenvalues --    0.95758   0.98003   0.98759   0.99179   1.00557
 Alpha virt. eigenvalues --    1.01658   1.02501   1.04235   1.06807   1.08783
 Alpha virt. eigenvalues --    1.13720   1.15448   1.16822   1.19434   1.20028
 Alpha virt. eigenvalues --    1.22495   1.26203   1.26612   1.27734   1.29446
 Alpha virt. eigenvalues --    1.31946   1.35244   1.39903   1.41035   1.50642
 Alpha virt. eigenvalues --    1.63848   1.64007   1.66287   1.68703   1.69446
 Alpha virt. eigenvalues --    1.74855   1.80654   1.84498   1.91038   1.97308
          Condensed to atoms (all electrons):
              1          2          3          4          5          6
     1  C    4.684561   0.318103   0.247752   0.358836  -0.018137   0.001185
     2  O    0.318103   8.288630  -0.085667  -0.062578   0.003915   0.001463
     3  O    0.247752  -0.085667   8.264926  -0.063035   0.193725   0.001955
     4  H    0.358836  -0.062578  -0.063035   0.520535   0.002889   0.000019
     5  H   -0.018137   0.003915   0.193725   0.002889   0.296621  -0.008767
     6  C    0.001185   0.001463   0.001955   0.000019  -0.008767   4.631648
     7  O    0.002810  -0.001335  -0.042288  -0.000059   0.090539   0.377559
     8  O    0.000140  -0.013740   0.000214  -0.000031  -0.000380   0.228441
     9  H    0.000012  -0.000023  -0.000083   0.000000   0.000962   0.383063
    10  H   -0.002074   0.050280  -0.000951   0.000386   0.001270  -0.012593
    11  C    0.001759   0.000991   0.000010  -0.001069   0.000001   0.000000
    12  O   -0.004599  -0.000855   0.000068   0.022987   0.000000   0.000000
    13  O    0.000194  -0.037674  -0.000019   0.000306   0.000003   0.000001
    14  H    0.000007  -0.000081   0.000000   0.000218   0.000000   0.000000
    15  H   -0.002788   0.076465   0.000488  -0.000081  -0.000006  -0.000003
    16  C   -0.000001  -0.000211   0.000000   0.000000   0.000000   0.000005
    17  O    0.000049  -0.001327   0.000000  -0.000004  -0.000006   0.000038
    18  O   -0.000001  -0.000008   0.000000   0.000000   0.000000   0.000000
    19  H    0.000000  -0.000003   0.000000   0.000000   0.000000   0.000000
    20  H    0.000012   0.000130   0.000000  -0.000006   0.000000   0.000000
    21  C    0.000082   0.000022  -0.000001   0.000018   0.000000   0.000000
    22  O   -0.000001   0.000001   0.000000   0.000000   0.000000   0.000000
    23  O    0.001296  -0.000385  -0.000009   0.000009  -0.000002   0.000000
    24  H   -0.000002  -0.000003   0.000000   0.000001   0.000000   0.000000
    25  H   -0.000002   0.001688  -0.000012   0.000006  -0.000002  -0.000004
              7          8          9         10         11         12
     1  C    0.002810   0.000140   0.000012  -0.002074   0.001759  -0.004599
     2  O   -0.001335  -0.013740  -0.000023   0.050280   0.000991  -0.000855
     3  O   -0.042288   0.000214  -0.000083  -0.000951   0.000010   0.000068
     4  H   -0.000059  -0.000031   0.000000   0.000386  -0.001069   0.022987
     5  H    0.090539  -0.000380   0.000962   0.001270   0.000001   0.000000
     6  C    0.377559   0.228441   0.383063  -0.012593   0.000000   0.000000
     7  O    8.186113  -0.081121  -0.063153   0.000959   0.000000   0.000000
     8  O   -0.081121   8.266794  -0.081390   0.200236   0.000000   0.000000
     9  H   -0.063153  -0.081390   0.572276   0.004040   0.000000   0.000000
    10  H    0.000959   0.200236   0.004040   0.290534  -0.000012  -0.000001
    11  C    0.000000   0.000000   0.000000  -0.000012   4.639455   0.470281
    12  O    0.000000   0.000000   0.000000  -0.000001   0.470281   8.058441
    13  O    0.000000  -0.000001   0.000000  -0.000031   0.128543  -0.086399
    14  H    0.000000   0.000000   0.000000   0.000000   0.368211  -0.058062
    15  H    0.000006  -0.000026   0.000000   0.000509  -0.009604   0.002626
    16  C    0.000000   0.000377   0.000000  -0.000812   0.000157   0.000000
    17  O   -0.000001  -0.001111  -0.000012   0.013574   0.000034   0.000000
    18  O    0.000000   0.000000   0.000000   0.000003  -0.000363  -0.000005
    19  H    0.000000  -0.000004   0.000000   0.000063   0.000001   0.000000
    20  H    0.000000   0.000000   0.000000  -0.000004   0.001708   0.000225
    21  C    0.000000   0.000000   0.000000  -0.000001   0.001413   0.000037
    22  O    0.000000   0.000000   0.000000   0.000000   0.002785  -0.000076
    23  O    0.000000   0.000000   0.000000  -0.000002  -0.000386   0.000002
    24  H    0.000000   0.000000   0.000000   0.000000   0.000020   0.000000
    25  H    0.000000  -0.000037   0.000000   0.000302   0.000085  -0.000070
             13         14         15         16         17         18
     1  C    0.000194   0.000007  -0.002788  -0.000001   0.000049  -0.000001
     2  O   -0.037674  -0.000081   0.076465  -0.000211  -0.001327  -0.000008
     3  O   -0.000019   0.000000   0.000488   0.000000   0.000000   0.000000
     4  H    0.000306   0.000218  -0.000081   0.000000  -0.000004   0.000000
     5  H    0.000003   0.000000  -0.000006   0.000000  -0.000006   0.000000
     6  C    0.000001   0.000000  -0.000003   0.000005   0.000038   0.000000
     7  O    0.000000   0.000000   0.000006   0.000000  -0.000001   0.000000
     8  O   -0.000001   0.000000  -0.000026   0.000377  -0.001111   0.000000
     9  H    0.000000   0.000000   0.000000   0.000000  -0.000012   0.000000
    10  H   -0.000031   0.000000   0.000509  -0.000812   0.013574   0.000003
    11  C    0.128543   0.368211  -0.009604   0.000157   0.000034  -0.000363
    12  O   -0.086399  -0.058062   0.002626   0.000000   0.000000  -0.000005
    13  O    8.506468  -0.087269   0.178227   0.000344  -0.001024  -0.022326
    14  H   -0.087269   0.598772   0.003524  -0.000008  -0.000005   0.000067
    15  H    0.178227   0.003524   0.288325   0.000676   0.004773   0.000276
    16  C    0.000344  -0.000008   0.000676   4.692361   0.387873   0.199235
    17  O   -0.001024  -0.000005   0.004773   0.387873   8.173037  -0.089025
    18  O   -0.022326   0.000067   0.000276   0.199235  -0.089025   8.317700
    19  H   -0.000066   0.000000   0.000071   0.368569  -0.063323  -0.088122
    20  H    0.051942  -0.000573  -0.001079  -0.018364   0.002362   0.215614
    21  C    0.000475   0.000001  -0.000071   0.000558  -0.000636   0.000232
    22  O   -0.001123   0.000016  -0.000326   0.000584  -0.000109  -0.000114
    23  O   -0.000810  -0.000001   0.002201   0.000156  -0.007634   0.000062
    24  H   -0.000007  -0.000004  -0.000013   0.000006  -0.000017   0.000001
    25  H    0.005211  -0.000008   0.000643   0.003724   0.035302  -0.001493
             19         20         21         22         23         24
     1  C    0.000000   0.000012   0.000082  -0.000001   0.001296  -0.000002
     2  O   -0.000003   0.000130   0.000022   0.000001  -0.000385  -0.000003
     3  O    0.000000   0.000000  -0.000001   0.000000  -0.000009   0.000000
     4  H    0.000000  -0.000006   0.000018   0.000000   0.000009   0.000001
     5  H    0.000000   0.000000   0.000000   0.000000  -0.000002   0.000000
     6  C    0.000000   0.000000   0.000000   0.000000   0.000000   0.000000
     7  O    0.000000   0.000000   0.000000   0.000000   0.000000   0.000000
     8  O   -0.000004   0.000000   0.000000   0.000000   0.000000   0.000000
     9  H    0.000000   0.000000   0.000000   0.000000   0.000000   0.000000
    10  H    0.000063  -0.000004  -0.000001   0.000000  -0.000002   0.000000
    11  C    0.000001   0.001708   0.001413   0.002785  -0.000386   0.000020
    12  O    0.000000   0.000225   0.000037  -0.000076   0.000002   0.000000
    13  O   -0.000066   0.051942   0.000475  -0.001123  -0.000810  -0.000007
    14  H    0.000000  -0.000573   0.000001   0.000016  -0.000001  -0.000004
    15  H    0.000071  -0.001079  -0.000071  -0.000326   0.002201  -0.000013
    16  C    0.368569  -0.018364   0.000558   0.000584   0.000156   0.000006
    17  O   -0.063323   0.002362  -0.000636  -0.000109  -0.007634  -0.000017
    18  O   -0.088122   0.215614   0.000232  -0.000114   0.000062   0.000001
    19  H    0.604172   0.004487  -0.000024  -0.000015  -0.000060  -0.000001
    20  H    0.004487   0.298900   0.000172   0.002884  -0.000260   0.000024
    21  C   -0.000024   0.000172   4.687344   0.477044   0.162627   0.351839
    22  O   -0.000015   0.002884   0.477044   8.103517  -0.114603  -0.070285
    23  O   -0.000060  -0.000260   0.162627  -0.114603   8.357215  -0.079701
    24  H   -0.000001   0.000024   0.351839  -0.070285  -0.079701   0.624026
    25  H    0.000761   0.001040  -0.012519   0.008364   0.210327   0.006049
             25
     1  C   -0.000002
     2  O    0.001688
     3  O   -0.000012
     4  H    0.000006
     5  H   -0.000002
     6  C   -0.000004
     7  O    0.000000
     8  O   -0.000037
     9  H    0.000000
    10  H    0.000302
    11  C    0.000085
    12  O   -0.000070
    13  O    0.005211
    14  H   -0.000008
    15  H    0.000643
    16  C    0.003724
    17  O    0.035302
    18  O   -0.001493
    19  H    0.000761
    20  H    0.001040
    21  C   -0.012519
    22  O    0.008364
    23  O    0.210327
    24  H    0.006049
    25  H    0.343020
 Mulliken atomic charges:
              1
     1  C    0.410807
     2  O   -0.537799
     3  O   -0.517074
     4  H    0.220654
     5  H    0.437376
     6  C    0.395990
     7  O   -0.470030
     8  O   -0.518364
     9  H    0.184307
    10  H    0.454324
    11  C    0.395981
    12  O   -0.404599
    13  O   -0.634965
    14  H    0.175195
    15  H    0.455186
    16  C    0.364770
    17  O   -0.452806
    18  O   -0.531734
    19  H    0.173496
    20  H    0.440787
    21  C    0.331389
    22  O   -0.408542
    23  O   -0.530041
    24  H    0.168067
    25  H    0.397625
 Sum of Mulliken atomic charges =   0.00000
 Mulliken charges with hydrogens summed into heavy atoms:
              1
     1  C    0.631460
     2  O   -0.537799
     3  O   -0.079697
     6  C    0.580297
     7  O   -0.470030
     8  O   -0.064040
    11  C    0.571176
    12  O   -0.404599
    13  O   -0.179779
    16  C    0.538266
    17  O   -0.452806
    18  O   -0.090947
    21  C    0.499456
    22  O   -0.408542
    23  O   -0.132416
 Sum of Mulliken charges with hydrogens summed into heavy atoms =   0.00000
 Electronic spatial extent (au):  <R**2>=           4064.9895
 Charge=              0.0000 electrons
 Dipole moment (field-independent basis, Debye):
    X=              1.1306    Y=             -1.2404    Z=             -0.6159  Tot=              1.7878
 Quadrupole moment (field-independent basis, Debye-Ang):
   XX=            -90.7308   YY=            -88.7428   ZZ=            -82.3639
   XY=             -7.5209   XZ=             -3.1550   YZ=             -0.9663
 Traceless Quadrupole moment (field-independent basis, Debye-Ang):
   XX=             -3.4516   YY=             -1.4636   ZZ=              4.9153
   XY=             -7.5209   XZ=             -3.1550   YZ=             -0.9663
 Octapole moment (field-independent basis, Debye-Ang**2):
  XXX=             50.7158  YYY=            -54.4211  ZZZ=              8.3419  XYY=              0.7249
  XXY=            -17.4155  XXZ=            -17.7798  XZZ=            -17.9970  YZZ=              9.4253
  YYZ=              6.9784  XYZ=             -2.4352
 Hexadecapole moment (field-independent basis, Debye-Ang**3):
 XXXX=          -2891.1639 YYYY=          -1453.0337 ZZZZ=           -608.5745 XXXY=           -250.1175
 XXXZ=             -2.9085 YYYX=             57.1492 YYYZ=             18.3188 ZZZX=            -39.7978
 ZZZY=              5.8810 XXYY=           -702.5891 XXZZ=           -534.8274 YYZZ=           -352.9759
 XXYZ=            -37.5229 YYXZ=            -22.3742 ZZXY=            -27.7901
 N-N= 1.077502211112D+03 E-N=-4.385613415932D+03  KE= 9.433559110753D+02
 Calling FoFJK, ICntrl=      2127 FMM=F ISym2X=0 I1Cent= 0 IOpClX= 0 NMat=1 NMatS=1 NMatT=0.
 ***** Axes restored to original set *****
 -------------------------------------------------------------------
 Center     Atomic                   Forces (Hartrees/Bohr)
 Number     Number              X              Y              Z
 -------------------------------------------------------------------
      1        6           0.000299219    0.002174038   -0.000799205
      2        8          -0.000003331   -0.002030770   -0.000442738
      3        8           0.000255918   -0.001151939    0.000925589
      4        1           0.000003876   -0.000146992   -0.000079596
      5        1           0.000218808    0.000161076   -0.000146113
      6        6          -0.000488753    0.001418734   -0.000563843
      7        8          -0.000066115   -0.000870656    0.000036752
      8        8           0.000954041   -0.000873569    0.000718140
      9        1           0.000039073   -0.000045299    0.000036360
     10        1          -0.001376815    0.001007663   -0.000483726
     11        6           0.003004224    0.000813005    0.003928538
     12        8          -0.000418420   -0.001027111   -0.001209760
     13        8          -0.003159971   -0.001699853   -0.004256227
     14        1          -0.000210666    0.000131184   -0.000816472
     15        1          -0.002288231    0.001608028    0.003042386
     16        6           0.005986939   -0.014744691    0.011111176
     17        8           0.001381473    0.010664113   -0.002189364
     18        8          -0.004100641   -0.000479759   -0.008258994
     19        1          -0.001326726    0.000535152   -0.000061615
     20        1           0.002479107    0.001305938    0.003275782
     21        6           0.014874196   -0.001946815    0.010576098
     22        8           0.010531767   -0.019709691    0.024611837
     23        8           0.009663117    0.043730544   -0.027238484
     24        1          -0.010153912    0.007043961   -0.012838651
     25        1          -0.026098177   -0.025866288    0.001122131
 -------------------------------------------------------------------
 Cartesian Forces:  Max     0.043730544 RMS     0.009351741

 GradGradGradGradGradGradGradGradGradGradGradGradGradGradGradGradGradGrad
 Berny optimization.
 Internal  Forces:  Max     0.038288748 RMS     0.007341231
 Search for a local minimum.
 Step number   1 out of a maximum of  105
 All quantities printed in internal units (Hartrees-Bohrs-Radians)
 Mixed Optimization -- RFO/linear search
 Second derivative matrix not updated -- first step.
     Eigenvalues ---    0.00230   0.00230   0.00438   0.00616   0.00675
     Eigenvalues ---    0.00985   0.01306   0.01532   0.01681   0.01870
     Eigenvalues ---    0.01986   0.02172   0.02216   0.02216   0.02344
     Eigenvalues ---    0.02585   0.02585   0.02824   0.03221   0.03288
     Eigenvalues ---    0.03353   0.03778   0.05212   0.05641   0.07292
     Eigenvalues ---    0.09260   0.09903   0.10181   0.12996   0.15037
     Eigenvalues ---    0.15742   0.15878   0.15883   0.15960   0.16000
     Eigenvalues ---    0.16000   0.16000   0.16000   0.16000   0.16000
     Eigenvalues ---    0.18391   0.19293   0.20000   0.21269   0.22000
     Eigenvalues ---    0.22000   0.23614   0.25000   0.25000   0.34568
     Eigenvalues ---    0.34605   0.34848   0.34887   0.34915   0.41983
     Eigenvalues ---    0.43287   0.46742   0.47114   0.52866   0.54872
     Eigenvalues ---    0.57529   0.58519   0.58922   0.62020   0.76211
     Eigenvalues ---    0.82517   0.83630   0.90224   0.951311000.00000
     Eigenvalues --- 1000.000001000.000001000.000001000.000001000.00000
     Eigenvalues --- 1000.000001000.000001000.000001000.000001000.00000
     Eigenvalues --- 1000.000001000.000001000.000001000.000001000.00000
     Eigenvalues --- 1000.000001000.000001000.000001000.000001000.00000
     Eigenvalues --- 1000.000001000.000001000.000001000.000001000.00000
 RFO step:  Lambda=-1.88889922D-02 EMin= 2.30000000D-03
 Linear search not attempted -- first point.
 Maximum step size (   0.300) exceeded in Quadratic search.
    -- Step size scaled by   0.609
 Iteration  1 RMS(Cart)=  0.26108599 RMS(Int)=  0.01122369
 Iteration  2 RMS(Cart)=  0.09187723 RMS(Int)=  0.00097271
 Iteration  3 RMS(Cart)=  0.00212073 RMS(Int)=  0.00014281
 Iteration  4 RMS(Cart)=  0.00000228 RMS(Int)=  0.00014281
 Iteration  5 RMS(Cart)=  0.00000000 RMS(Int)=  0.00014281
 Variable       Old X    -DE/DX   Delta X   Delta X   Delta X     New X
                                 (Linear)    (Quad)   (Total)
    R1        2.38664   0.00096   0.00000   0.00075   0.00075   2.38738
    R2        2.48858  -0.00126   0.00000  -0.00119  -0.00119   2.48739
    R3        2.05812  -0.00013   0.00000  -0.00021  -0.00021   2.05791
    R4        3.57015   0.00005   0.00000   0.00081   0.00081   3.57096
    R5        3.00754   0.00041   0.00000   0.00223   0.00223   3.00977
    R6        1.94098   0.00004   0.00000  -0.00001  -0.00001   1.94097
    R7        2.95066   0.00009   0.00000   0.00022   0.00022   2.95088
    R8        2.35865  -0.00083   0.00000  -0.00062  -0.00062   2.35804
    R9        2.51203   0.00078   0.00000   0.00077   0.00077   2.51281
   R10        2.05922  -0.00003   0.00000  -0.00005  -0.00005   2.05917
   R11        1.89050  -0.00044   0.00000  -0.00048  -0.00048   1.89002
   R12        2.32830  -0.00096   0.00000  -0.00063  -0.00063   2.32766
   R13        2.57079   0.00202   0.00000   0.00224   0.00224   2.57304
   R14        2.06321  -0.00075   0.00000  -0.00124  -0.00124   2.06197
   R15        1.94017   0.00024   0.00000   0.00032   0.00032   1.94049
   R16        3.22758   0.00036   0.00000   0.00239   0.00239   3.22997
   R17        2.33623   0.00750   0.00000   0.00588   0.00624   2.34247
   R18        2.55246  -0.00630   0.00000  -0.00676  -0.00676   2.54571
   R19        2.06382  -0.00072   0.00000  -0.00121  -0.00121   2.06261
   R20        4.81993   0.00756   0.00000   0.09906   0.09880   4.91872
   R21        3.85911  -0.00516   0.00000  -0.04393  -0.04382   3.81529
   R22        1.89594   0.00246   0.00000   0.00305   0.00305   1.89900
   R23        2.30654   0.03260   0.00000   0.02045   0.02045   2.32699
   R24        2.51803   0.02493   0.00000   0.02495   0.02495   2.54298
   R25        2.05859  -0.00003   0.00000  -0.00005  -0.00005   2.05854
   R26        1.79651   0.03829   0.00000   0.03922   0.03922   1.83573
    A1        2.16816  -0.00005   0.00000  -0.00002  -0.00002   2.16814
    A2        2.11513  -0.00008   0.00000  -0.00036  -0.00036   2.11477
    A3        1.99989   0.00013   0.00000   0.00038   0.00038   2.00027
    A4        2.29521  -0.00071   0.00000  -0.00209  -0.00209   2.29312
    A5        2.07054  -0.00115   0.00000  -0.00404  -0.00404   2.06650
    A6        1.91212   0.00186   0.00000   0.00621   0.00621   1.91832
    A7        1.99387   0.00046   0.00000   0.00140   0.00140   1.99527
    A8        3.03692   0.00013   0.00000  -0.00001  -0.00001   3.03691
    A9        2.22040  -0.00032   0.00000  -0.00079  -0.00079   2.21961
   A10        2.11998   0.00023   0.00000   0.00063   0.00063   2.12061
   A11        1.94280   0.00009   0.00000   0.00016   0.00016   1.94297
   A12        2.29443   0.00002   0.00000  -0.00023  -0.00023   2.29420
   A13        2.04216  -0.00020   0.00000  -0.00027  -0.00027   2.04190
   A14        2.70967   0.00081   0.00000   0.00237   0.00237   2.71205
   A15        2.17294  -0.00184   0.00000  -0.00468  -0.00468   2.16826
   A16        2.17005   0.00126   0.00000   0.00351   0.00351   2.17356
   A17        1.94019   0.00057   0.00000   0.00116   0.00116   1.94135
   A18        1.98692  -0.00045   0.00000  -0.00100  -0.00100   1.98593
   A19        2.35126  -0.00428   0.00000  -0.01429  -0.01430   2.33696
   A20        1.91923   0.00475   0.00000   0.01676   0.01676   1.93600
   A21        3.02969  -0.00054   0.00000  -0.00122  -0.00122   3.02847
   A22        2.18745   0.00049   0.00000  -0.00086  -0.00116   2.18629
   A23        2.16383   0.00089   0.00000   0.00077   0.00057   2.16440
   A24        1.93190  -0.00138   0.00000   0.00006  -0.00016   1.93174
   A25        1.59209   0.00583   0.00000   0.02823   0.02828   1.62037
   A26        2.31890  -0.00234   0.00000  -0.00406  -0.00418   2.31472
   A27        1.95442   0.00844   0.00000   0.02872   0.02872   1.98314
   A28        2.88657   0.00531   0.00000   0.01201   0.01201   2.89858
   A29        2.10699   0.02216   0.00000   0.05646   0.05640   2.16339
   A30        2.08679   0.00726   0.00000   0.03418   0.03411   2.12091
   A31        2.08941  -0.02943   0.00000  -0.09064  -0.09070   1.99870
   A32        1.93434   0.00628   0.00000   0.02138   0.02138   1.95572
   A33        2.77306  -0.00097   0.00000   0.00011   0.00078   2.77384
   A34        2.68722  -0.00008   0.00000   0.00852   0.00931   2.69653
    D1        0.06297   0.00002   0.00000   0.00096   0.00096   0.06393
    D2        3.08110   0.00020   0.00000   0.00221   0.00221   3.08332
    D3       -3.08072  -0.00011   0.00000  -0.00051  -0.00051  -3.08123
    D4       -0.06259   0.00007   0.00000   0.00075   0.00075  -0.06184
    D5        0.01467  -0.00020   0.00000  -0.00167  -0.00167   0.01299
    D6       -3.12495  -0.00008   0.00000  -0.00029  -0.00029  -3.12525
    D7       -0.64103  -0.00001   0.00000  -0.00031  -0.00031  -0.64134
    D8        2.61552  -0.00002   0.00000  -0.00097  -0.00097   2.61455
    D9        0.22466   0.00120   0.00000   0.03433   0.03433   0.25898
   D10       -3.01497   0.00121   0.00000   0.03492   0.03492  -2.98004
   D11        0.46708   0.00005   0.00000   0.00063   0.00063   0.46772
   D12       -0.41968   0.00004   0.00000   0.00020   0.00020  -0.41948
   D13       -0.14349   0.00015   0.00000   0.00068   0.00068  -0.14281
   D14        2.99877   0.00012   0.00000   0.00030   0.00030   2.99907
   D15       -0.02242   0.00010   0.00000  -0.00003  -0.00003  -0.02245
   D16        3.11856   0.00013   0.00000   0.00032   0.00032   3.11888
   D17        0.58510   0.00007   0.00000   0.00045   0.00044   0.58555
   D18       -0.01319  -0.00050   0.00000  -0.00571  -0.00569  -0.01888
   D19        2.85523   0.00045   0.00000   0.00500   0.00498   2.86021
   D20        3.13014  -0.00024   0.00000  -0.00187  -0.00185   3.12829
   D21       -0.28463   0.00071   0.00000   0.00884   0.00882  -0.27581
   D22       -0.10523   0.00097   0.00000   0.03112   0.03118  -0.07406
   D23       -3.04142   0.00150   0.00000   0.02738   0.02732  -3.01410
   D24       -2.58876   0.00318   0.00000   0.09284   0.09284  -2.49592
   D25        0.28718   0.00358   0.00000   0.10146   0.10145   0.38863
   D26       -0.01442   0.00357   0.00000   0.07241   0.07243   0.05802
   D27        3.12621   0.00266   0.00000   0.03300   0.03313  -3.12384
   D28        0.72922   0.00259   0.00000   0.02128   0.02113   0.75035
   D29        1.86579   0.00057   0.00000  -0.00349  -0.00357   1.86223
   D30       -0.23079  -0.00240   0.00000  -0.03194  -0.03191  -0.26270
   D31       -0.14966   0.00787   0.00000   0.16669   0.16669   0.01703
   D32        0.00000  -0.00165   0.00000  -0.02248  -0.02248  -0.02248
   D33        3.14159  -0.00013   0.00000  -0.00176  -0.00176   3.13983
   D34       -1.34784  -0.00063   0.00000  -0.02789  -0.02833  -1.37617
   D35       -2.66356  -0.00074   0.00000   0.00446   0.00491  -2.65865
         Item               Value     Threshold  Converged?
 Maximum Force            0.038289     0.000450     NO 
 RMS     Force            0.007341     0.000300     NO 
 Maximum Displacement     1.201477     0.001800     NO 
 RMS     Displacement     0.348627     0.001200     NO 
 Predicted change in Energy=-8.843944D-03
 GradGradGradGradGradGradGradGradGradGradGradGradGradGradGradGradGradGrad

                          Input orientation:                          
 ---------------------------------------------------------------------
 Center     Atomic      Atomic             Coordinates (Angstroms)
 Number     Number       Type             X           Y           Z
 ---------------------------------------------------------------------
      1          6           0       -0.484066    2.018017    0.172368
      2          8           0       -0.492437    0.759754    0.059435
      3          8           0       -1.113159    2.838630   -0.642126
      4          1           0        0.059784    2.507908    0.978690
      5          1           0       -1.636984    2.371348   -1.391943
      6          6           0       -2.589209    0.300364   -2.566401
      7          8           0       -2.445650    1.532546   -2.431590
      8          8           0       -1.943042   -0.660167   -1.912180
      9          1           0       -3.302196   -0.115331   -3.277893
     10          1           0       -1.251315   -0.372055   -1.249748
     11          6           0        1.379427    0.288578    2.777584
     12          8           0        1.130264    1.494416    2.810329
     13          8           0        0.955911   -0.554692    1.796022
     14          1           0        1.971159   -0.241352    3.525666
     15          1           0        0.383613   -0.097959    1.076079
     16          6           0        1.526919   -2.825907   -0.540021
     17          8           0        1.240176   -1.774235   -1.130215
     18          8           0        1.637849   -2.962915    0.795526
     19          1           0        1.764748   -3.763970   -1.044817
     20          1           0        1.412301   -2.127342    1.306193
     21          6           0        4.305612    0.141389    0.300904
     22          8           0        4.282852   -0.639052    1.253121
     23          8           0        3.365074    0.181440   -0.660689
     24          1           0        5.099313    0.878896    0.187894
     25          1           0        2.676973   -0.490924   -0.526109
 ---------------------------------------------------------------------
                    Distance matrix (angstroms):
                    1          2          3          4          5
     1  C    0.000000
     2  O    1.263349   0.000000
     3  O    1.316268   2.280177   0.000000
     4  H    1.089001   2.050858   2.027860   0.000000
     5  H    1.975128   2.452290   1.027118   2.918488   0.000000
     6  C    3.857825   3.391535   3.510605   4.945512   2.564188
     7  O    3.296072   3.258444   2.585260   4.342642   1.561536
     8  O    3.694133   2.829787   3.813570   4.733407   3.091020
     9  H    4.939365   4.449526   4.523829   6.025180   3.537416
    10  H    2.885052   1.889669   3.270595   3.870285   2.774027
    11  C    3.640153   3.333798   4.940664   3.146887   5.551723
    12  O    3.136728   3.277240   4.331201   2.351168   5.107423
    13  O    3.365802   2.615572   4.662644   3.294024   5.044596
    14  H    4.730485   4.368783   6.030737   4.207002   6.635343
    15  H    2.459048   1.592702   3.717002   2.627716   4.033785
    16  C    5.292935   4.158619   6.250393   5.736598   6.143901
    17  O    4.364735   3.292160   5.201437   4.917068   5.052962
    18  O    5.449820   4.351806   6.579728   5.696819   6.630530
    19  H    6.322189   5.174778   7.213794   6.807197   7.023846
    20  H    4.697421   3.676650   5.902099   4.839638   6.067643
    21  C    5.145802   4.843754   6.125969   4.907837   6.569087
    22  O    5.563412   5.117121   6.693517   5.273801   7.148660
    23  O    4.345444   3.966537   5.207262   4.361761   5.509176
    24  H    5.698417   5.594493   6.566909   5.354987   7.078205
    25  H    4.095707   3.457197   5.046235   4.255242   5.249047
                    6          7          8          9         10
     6  C    0.000000
     7  O    1.247820   0.000000
     8  O    1.329721   2.308764   0.000000
     9  H    1.089667   2.040930   2.002328   0.000000
    10  H    1.993912   2.539821   1.000156   2.895755   0.000000
    11  C    6.656454   6.581349   5.825187   7.664824   4.855578
    12  O    6.646011   6.345576   6.032373   7.700937   5.063581
    13  O    5.685925   5.813767   4.708059   6.638459   3.765889
    14  H    7.629134   7.625209   6.713161   8.608865   5.762464
    15  H    4.718474   4.792391   3.828719   5.704609   2.856149
    16  C    5.551784   6.193178   4.314381   6.177663   3.774081
    17  O    4.585933   5.119931   3.462007   5.291279   2.861455
    18  O    6.310275   6.877384   5.045503   7.007533   4.386681
    19  H    6.147436   6.906784   4.912597   6.631223   4.543535
    20  H    6.074769   6.499968   4.875331   6.876664   4.087629
    21  C    7.468954   7.414943   6.677268   8.411447   5.792028
    22  O    7.918110   7.972808   6.984363   8.850837   6.079690
    23  O    6.252949   6.223030   5.518209   7.168705   4.686619
    24  H    8.187442   8.013452   7.508247   9.142511   6.630396
    25  H    5.702771   5.828083   4.826424   6.592712   3.996151
                   11         12         13         14         15
    11  C    0.000000
    12  O    1.231747   0.000000
    13  O    1.361592   2.293047   0.000000
    14  H    1.091146   2.057110   2.029920   0.000000
    15  H    2.009023   2.469974   1.026864   2.922557   0.000000
    16  C    4.552831   5.481549   3.307804   4.838086   3.370553
    17  O    4.421028   5.120943   3.182917   4.955935   2.900231
    18  O    3.816746   4.917813   2.695473   3.869324   3.140031
    19  H    5.584118   6.550981   4.361657   5.774146   4.454814
    20  H    2.828912   3.931807   1.709225   2.965694   2.286820
    21  C    3.836426   4.267404   3.733685   3.999406   4.005029
    22  O    3.407985   4.112834   3.372001   3.265969   3.940582
    23  O    3.971900   4.332003   3.518719   4.432529   3.461724
    24  H    4.570833   4.796810   4.670013   4.709673   4.897033
    25  H    3.633955   4.179199   2.891092   4.120356   2.825053
                   16         17         18         19         20
    16  C    0.000000
    17  O    1.239583   0.000000
    18  O    1.347130   2.297734   0.000000
    19  H    1.091487   2.059493   2.011132   0.000000
    20  H    1.977280   2.467873   1.004906   2.886177   0.000000
    21  C    4.151282   3.887753   4.122902   4.849618   3.811692
    22  O    3.948779   4.028251   3.550461   4.624552   3.233866
    23  O    3.526686   2.925801   3.871800   4.274910   3.607273
    24  H    5.197828   4.865126   5.206770   5.847658   4.886933
    25  H    2.602877   2.018965   2.989521   3.437157   2.763076
                   21         22         23         24         25
    21  C    0.000000
    22  O    1.231391   0.000000
    23  O    1.345688   2.275563   0.000000
    24  H    1.089333   2.026199   2.052832   0.000000
    25  H    1.932935   2.401343   0.971426   2.872966   0.000000
 Stoichiometry    C5H10O10
 Framework group  C1[X(C5H10O10)]
 Deg. of freedom    69
 Full point group                 C1      NOp   1
 Largest Abelian subgroup         C1      NOp   1
 Largest concise Abelian subgroup C1      NOp   1
                         Standard orientation:                         
 ---------------------------------------------------------------------
 Center     Atomic      Atomic             Coordinates (Angstroms)
 Number     Number       Type             X           Y           Z
 ---------------------------------------------------------------------
      1          6           0       -1.525546   -1.784730    0.130247
      2          8           0       -1.201588   -0.668595   -0.365075
      3          8           0       -2.677519   -2.026995    0.719168
      4          1           0       -0.847611   -2.636146    0.092597
      5          1           0       -3.319401   -1.225390    0.738813
      6          6           0       -4.026155    1.152645    0.090348
      7          8           0       -4.219650    0.046195    0.633839
      8          8           0       -2.891959    1.599581   -0.440693
      9          1           0       -4.823097    1.890440    0.001377
     10          1           0       -2.096636    0.995512   -0.387094
     11          6           0        1.762683   -1.759927   -1.431052
     12          8           0        1.203386   -2.787928   -1.046862
     13          8           0        1.210862   -0.516962   -1.364231
     14          1           0        2.764105   -1.724975   -1.862945
     15          1           0        0.260994   -0.505956   -0.974256
     16          6           0        1.290087    2.659930   -0.446274
     17          8           0        0.456569    2.101052    0.281372
     18          8           0        2.045719    2.045930   -1.377287
     19          1           0        1.538613    3.721071   -0.386632
     20          1           0        1.841365    1.067457   -1.480564
     21          6           0        3.086049   -0.290512    1.856453
     22          8           0        3.748254   -0.155907    0.827041
     23          8           0        1.844710    0.202183    2.021394
     24          1           0        3.468168   -0.848328    2.710545
     25          1           0        1.540521    0.693453    1.240502
 ---------------------------------------------------------------------
 Rotational constants (GHZ):      0.5937419      0.3018292      0.2520449
 Standard basis: 6-31G (6D, 7F)
 There are   155 symmetry adapted basis functions of A   symmetry.
 Integral buffers will be    131072 words long.
 Raffenetti 2 integral format.
 Two-electron integral symmetry is turned on.
   155 basis functions,   370 primitive gaussians,   155 cartesian basis functions
    60 alpha electrons       60 beta electrons
       nuclear repulsion energy      1047.9957418510 Hartrees.
 NAtoms=   25 NActive=   25 NUniq=   25 SFac= 7.50D-01 NAtFMM=   80 NAOKFM=F Big=F
 One-electron integrals computed using PRISM.
 NBasis=   155 RedAO= T  NBF=   155
 NBsUse=   155 1.00D-06 NBFU=   155
 Initial guess read from the read-write file.
 B after Tr=     0.000000    0.000000    0.000000
         Rot=    1.000000    0.000000    0.000000    0.000000 Ang=   0.00 deg.
 Initial guess orbital symmetries:
       Occupied  (A) (A) (A) (A) (A) (A) (A) (A) (A) (A) (A) (A)
                 (A) (A) (A) (A) (A) (A) (A) (A) (A) (A) (A) (A)
                 (A) (A) (A) (A) (A) (A) (A) (A) (A) (A) (A) (A)
                 (A) (A) (A) (A) (A) (A) (A) (A) (A) (A) (A) (A)
                 (A) (A) (A) (A) (A) (A) (A) (A) (A) (A) (A) (A)
       Virtual   (A) (A) (A) (A) (A) (A) (A) (A) (A) (A) (A) (A)
                 (A) (A) (A) (A) (A) (A) (A) (A) (A) (A) (A) (A)
                 (A) (A) (A) (A) (A) (A) (A) (A) (A) (A) (A) (A)
                 (A) (A) (A) (A) (A) (A) (A) (A) (A) (A) (A) (A)
                 (A) (A) (A) (A) (A) (A) (A) (A) (A) (A) (A) (A)
                 (A) (A) (A) (A) (A) (A) (A) (A) (A) (A) (A) (A)
                 (A) (A) (A) (A) (A) (A) (A) (A) (A) (A) (A) (A)
                 (A) (A) (A) (A) (A) (A) (A) (A) (A) (A) (A)
 Harris functional with IExCor=  402 diagonalized for initial guess.
 ExpMin= 1.61D-01 ExpMax= 5.48D+03 ExpMxC= 8.25D+02 IAcc=1 IRadAn=         1 AccDes= 0.00D+00
 HarFok:  IExCor=  402 AccDes= 0.00D+00 IRadAn=         1 IDoV= 1
 ScaDFX=  1.000000  1.000000  1.000000  1.000000
 FoFCou: FMM=F IPFlag=           0 FMFlag=      100000 FMFlg1=           0
         NFxFlg=           0 DoJE=T BraDBF=F KetDBF=T FulRan=T
         Omega=  0.000000  0.000000  1.000000  0.000000  0.000000 ICntrl=     500 IOpCl=  0
         NMat0=    1 NMatS0=    1 NMatT0=    0 NMatD0=    1 NMtDS0=    0 NMtDT0=    0
         I1Cent=           4 NGrid=           0.
 Petite list used in FoFCou.
 Requested convergence on RMS density matrix=1.00D-08 within 128 cycles.
 Requested convergence on MAX density matrix=1.00D-06.
 Requested convergence on             energy=1.00D-06.
 No special actions if energy rises.
 Keep R1 ints in memory in canonical form, NReq=75294180.
 Integral accuracy reduced to 1.0D-05 until final iterations.
 Initial convergence to 1.0D-05 achieved.  Increase integral accuracy.
 SCF Done:  E(RB3LYP) =  -948.514484450     A.U. after   16 cycles
             Convg  =    0.6076D-08             -V/T =  2.0056
 Calling FoFJK, ICntrl=      2127 FMM=F ISym2X=0 I1Cent= 0 IOpClX= 0 NMat=1 NMatS=1 NMatT=0.
 ***** Axes restored to original set *****
 -------------------------------------------------------------------
 Center     Atomic                   Forces (Hartrees/Bohr)
 Number     Number              X              Y              Z
 -------------------------------------------------------------------
      1        6           0.000397230    0.001772539   -0.000413985
      2        8          -0.000095585   -0.003885904   -0.001408679
      3        8          -0.000162762   -0.001003014    0.000061340
      4        1          -0.000261110   -0.000289117    0.000232181
      5        1           0.000574060    0.000771675    0.000491377
      6        6          -0.001322089    0.004324663   -0.001941203
      7        8          -0.000208041   -0.002853601    0.000037323
      8        8           0.004348168   -0.004897135    0.002599916
      9        1           0.000165894   -0.000239556    0.000229978
     10        1          -0.002238848    0.005627863   -0.000373238
     11        6           0.003116444    0.000683817    0.003245815
     12        8          -0.000400062   -0.000437344   -0.000876937
     13        8          -0.002977006   -0.002495954   -0.004945451
     14        1          -0.000153063    0.000072435   -0.000754291
     15        1           0.000591300    0.001321923    0.002764933
     16        6           0.005020080   -0.006979964    0.009024651
     17        8           0.000665194    0.007062018   -0.000841095
     18        8          -0.003600900   -0.002326810   -0.003871773
     19        1          -0.002290268   -0.000031369   -0.000625072
     20        1           0.002489665    0.001574061    0.000419904
     21        6           0.005742796   -0.002253449    0.012239678
     22        8          -0.001311210   -0.005319426    0.006685731
     23        8           0.010367532    0.016181728   -0.008828874
     24        1          -0.002879677    0.003069494   -0.008512691
     25        1          -0.015577743   -0.009449574   -0.004639537
 -------------------------------------------------------------------
 Cartesian Forces:  Max     0.016181728 RMS     0.004649723

 GradGradGradGradGradGradGradGradGradGradGradGradGradGradGradGradGradGrad
 Berny optimization.
 Using GEDIIS/GDIIS optimizer.
 Internal  Forces:  Max     0.016307867 RMS     0.003327722
 Search for a local minimum.
 Step number   2 out of a maximum of  105
 All quantities printed in internal units (Hartrees-Bohrs-Radians)
 Mixed Optimization -- RFO/linear search
 Update second derivatives using D2CorX and points    1    2
 DE= -5.67D-03 DEPred=-8.84D-03 R= 6.41D-01
 SS=  1.41D+00  RLast= 3.00D-01 DXNew= 5.0454D-01 8.9997D-01
 Trust test= 6.41D-01 RLast= 3.00D-01 DXMaxT set to 5.05D-01
 Use linear search instead of GDIIS.
     Eigenvalues ---    0.00228   0.00276   0.00438   0.00615   0.00684
     Eigenvalues ---    0.01204   0.01343   0.01516   0.01629   0.01869
     Eigenvalues ---    0.01918   0.02166   0.02215   0.02216   0.02567
     Eigenvalues ---    0.02582   0.02823   0.03196   0.03222   0.03289
     Eigenvalues ---    0.03355   0.03721   0.04760   0.05650   0.07292
     Eigenvalues ---    0.09260   0.10114   0.10179   0.12682   0.14159
     Eigenvalues ---    0.15066   0.15774   0.15883   0.15902   0.15969
     Eigenvalues ---    0.16000   0.16000   0.16000   0.16000   0.17212
     Eigenvalues ---    0.18507   0.19294   0.19998   0.21166   0.21941
     Eigenvalues ---    0.22468   0.23949   0.24959   0.27323   0.34568
     Eigenvalues ---    0.34602   0.34848   0.34900   0.34915   0.41985
     Eigenvalues ---    0.43329   0.46708   0.47217   0.51935   0.53206
     Eigenvalues ---    0.55240   0.58513   0.58895   0.62029   0.76207
     Eigenvalues ---    0.82520   0.82843   0.90222   0.946411000.00000
     Eigenvalues --- 1000.000001000.000001000.000001000.000001000.00000
     Eigenvalues --- 1000.000001000.000001000.000001000.000001000.00000
     Eigenvalues --- 1000.000001000.000001000.000001000.000001000.00000
     Eigenvalues --- 1000.000001000.000001000.000001000.000001000.00000
     Eigenvalues --- 1000.000001000.000001000.000001000.000001000.00000
 RFO step:  Lambda=-2.92870931D-02 EMin= 2.28398673D-03
 Quartic linear search produced a step of  1.51273.
 Maximum step size (   0.505) exceeded in Quadratic search.
    -- Step size scaled by   0.692
 Iteration  1 RMS(Cart)=  0.28114817 RMS(Int)=  0.04763256
 Iteration  2 RMS(Cart)=  0.27084520 RMS(Int)=  0.02250562
 Iteration  3 RMS(Cart)=  0.05341212 RMS(Int)=  0.00439232
 Iteration  4 RMS(Cart)=  0.00215327 RMS(Int)=  0.00426101
 Iteration  5 RMS(Cart)=  0.00002858 RMS(Int)=  0.00426101
 Iteration  6 RMS(Cart)=  0.00000075 RMS(Int)=  0.00426101
 Variable       Old X    -DE/DX   Delta X   Delta X   Delta X     New X
                                 (Linear)    (Quad)   (Total)
    R1        2.38738   0.00053   0.00113   0.00056   0.00172   2.38910
    R2        2.48739  -0.00051  -0.00181  -0.00021  -0.00205   2.48534
    R3        2.05791  -0.00009  -0.00032  -0.00019  -0.00051   2.05741
    R4        3.57096  -0.00289   0.00122  -0.05022  -0.04893   3.52202
    R5        3.00977  -0.00072   0.00338  -0.00944  -0.00606   3.00371
    R6        1.94097   0.00001  -0.00001  -0.00065  -0.00073   1.94024
    R7        2.95088   0.00104   0.00033   0.00980   0.01006   2.96094
    R8        2.35804  -0.00202  -0.00093  -0.00324  -0.00421   2.35383
    R9        2.51281   0.00234   0.00117   0.00504   0.00624   2.51905
   R10        2.05917  -0.00017  -0.00007  -0.00064  -0.00071   2.05846
   R11        1.89002  -0.00258  -0.00073  -0.00677  -0.00743   1.88259
   R12        2.32766  -0.00037  -0.00096   0.00000  -0.00096   2.32671
   R13        2.57304   0.00216   0.00340   0.00393   0.00733   2.58036
   R14        2.06197  -0.00063  -0.00188  -0.00160  -0.00348   2.05849
   R15        1.94049  -0.00231   0.00048  -0.00791  -0.00742   1.93307
   R16        3.22997  -0.00206   0.00361  -0.03091  -0.02730   3.20266
   R17        2.34247   0.00442   0.00944   0.00369   0.02574   2.36821
   R18        2.54571  -0.00419  -0.01022  -0.00507  -0.01529   2.53042
   R19        2.06261  -0.00018  -0.00183   0.00021  -0.00162   2.06099
   R20        4.91872   0.00507   0.14946   0.24182   0.37767   5.29640
   R21        3.81529  -0.00495  -0.06628  -0.12125  -0.17595   3.63934
   R22        1.89900  -0.00114   0.00462  -0.00609  -0.00147   1.89752
   R23        2.32699   0.00856   0.03093  -0.00637   0.02456   2.35155
   R24        2.54298   0.00865   0.03774  -0.00112   0.03662   2.57960
   R25        2.05854   0.00086  -0.00008   0.00353   0.00344   2.06199
   R26        1.83573   0.01631   0.05932   0.00600   0.06532   1.90105
    A1        2.16814  -0.00115  -0.00003  -0.00570  -0.00574   2.16240
    A2        2.11477   0.00031  -0.00055   0.00087   0.00029   2.11506
    A3        2.00027   0.00085   0.00057   0.00481   0.00536   2.00563
    A4        2.29312  -0.00031  -0.00316   0.00142  -0.00170   2.29141
    A5        2.06650   0.00175  -0.00611   0.01386   0.00760   2.07411
    A6        1.91832  -0.00150   0.00939  -0.01767  -0.00841   1.90992
    A7        1.99527  -0.00005   0.00212  -0.00261  -0.00062   1.99466
    A8        3.03691   0.00056  -0.00001  -0.00107  -0.00106   3.03585
    A9        2.21961  -0.00116  -0.00120  -0.00660  -0.00777   2.21184
   A10        2.12061   0.00092   0.00095   0.00591   0.00684   2.12745
   A11        1.94297   0.00024   0.00025   0.00069   0.00092   1.94388
   A12        2.29420   0.00042  -0.00035   0.00014  -0.00028   2.29392
   A13        2.04190  -0.00229  -0.00041  -0.01412  -0.01432   2.02758
   A14        2.71205   0.00475   0.00359   0.03099   0.03462   2.74667
   A15        2.16826  -0.00130  -0.00708  -0.00496  -0.01210   2.15615
   A16        2.17356   0.00100   0.00531   0.00465   0.00990   2.18346
   A17        1.94135   0.00030   0.00175   0.00024   0.00193   1.94328
   A18        1.98593   0.00151  -0.00151   0.01108   0.00942   1.99535
   A19        2.33696  -0.00110  -0.02163  -0.00341  -0.02515   2.31182
   A20        1.93600  -0.00071   0.02536  -0.01572   0.00949   1.94548
   A21        3.02847   0.00565  -0.00185   0.03169   0.02984   3.05831
   A22        2.18629   0.00131  -0.00175   0.00951  -0.00409   2.18221
   A23        2.16440   0.00054   0.00087  -0.01539  -0.00972   2.15468
   A24        1.93174  -0.00181  -0.00024   0.00197  -0.00565   1.92609
   A25        1.62037   0.00236   0.04278   0.02430   0.07295   1.69332
   A26        2.31472   0.00371  -0.00633   0.06208   0.04901   2.36373
   A27        1.98314  -0.00086   0.04345  -0.02174   0.02171   2.00485
   A28        2.89858  -0.00116   0.01816  -0.01465   0.00351   2.90209
   A29        2.16339   0.00502   0.08532  -0.00595   0.07906   2.24245
   A30        2.12091   0.00717   0.05161   0.04874   0.10004   2.22094
   A31        1.99870  -0.01218  -0.13721  -0.04288  -0.18040   1.81830
   A32        1.95572  -0.00119   0.03234  -0.02058   0.01176   1.96748
   A33        2.77384  -0.00154   0.00117  -0.02145   0.00383   2.77767
   A34        2.69653  -0.00037   0.01408   0.02996   0.04698   2.74351
    D1        0.06393   0.00010   0.00145   0.01397   0.01535   0.07928
    D2        3.08332  -0.00071   0.00335  -0.01472  -0.01145   3.07187
    D3       -3.08123  -0.00022  -0.00077   0.00497   0.00414  -3.07708
    D4       -0.06184  -0.00102   0.00113  -0.02372  -0.02266  -0.08450
    D5        0.01299  -0.00094  -0.00253  -0.01333  -0.01600  -0.00301
    D6       -3.12525  -0.00064  -0.00044  -0.00485  -0.00542  -3.13067
    D7       -0.64134  -0.00052  -0.00047  -0.02097  -0.02140  -0.66274
    D8        2.61455   0.00006  -0.00147   0.00425   0.00264   2.61719
    D9        0.25898  -0.00227   0.05193  -0.03513   0.01677   0.27575
   D10       -2.98004  -0.00288   0.05283  -0.05722  -0.00437  -2.98441
   D11        0.46772   0.00005   0.00096  -0.00121  -0.00025   0.46746
   D12       -0.41948   0.00021   0.00031   0.00105   0.00139  -0.41808
   D13       -0.14281   0.00084   0.00104   0.00862   0.00976  -0.13304
   D14        2.99907   0.00070   0.00046   0.00458   0.00514   3.00421
   D15       -0.02245   0.00073  -0.00005   0.00493   0.00501  -0.01745
   D16        3.11888   0.00086   0.00048   0.00863   0.00923   3.12810
   D17        0.58555   0.00033   0.00067   0.00962   0.01033   0.59587
   D18       -0.01888   0.00078  -0.00861   0.02061   0.01197  -0.00691
   D19        2.86021  -0.00087   0.00753  -0.02398  -0.01641   2.84379
   D20        3.12829   0.00110  -0.00280   0.03387   0.03103  -3.12387
   D21       -0.27581  -0.00055   0.01334  -0.01073   0.00265  -0.27316
   D22       -0.07406  -0.00303   0.04716  -0.06082  -0.01381  -0.08787
   D23       -3.01410  -0.00161   0.04133  -0.02747   0.01401  -3.00008
   D24       -2.49592  -0.00150   0.14044   0.13429   0.27467  -2.22125
   D25        0.38863  -0.00287   0.15347   0.09353   0.24706   0.63569
   D26        0.05802  -0.00253   0.10957   0.03865   0.15108   0.20910
   D27       -3.12384  -0.00148   0.05012  -0.06706  -0.01792   3.14142
   D28        0.75035  -0.00642   0.03196  -0.15618  -0.12609   0.62426
   D29        1.86223  -0.00247  -0.00540  -0.11773  -0.12170   1.74052
   D30       -0.26270  -0.00472  -0.04827  -0.18669  -0.24200  -0.50470
   D31        0.01703  -0.00502   0.25216   0.07381   0.32597   0.34300
   D32       -0.02248  -0.00148  -0.03400  -0.05963  -0.09361  -0.11609
   D33        3.13983  -0.00195  -0.00267  -0.05566  -0.05834   3.08149
   D34       -1.37617  -0.00438  -0.04286  -0.17068  -0.22565  -1.60182
   D35       -2.65865  -0.00139   0.00743  -0.04866  -0.02912  -2.68777
         Item               Value     Threshold  Converged?
 Maximum Force            0.016308     0.000450     NO 
 RMS     Force            0.003328     0.000300     NO 
 Maximum Displacement     1.695679     0.001800     NO 
 RMS     Displacement     0.578678     0.001200     NO 
 Predicted change in Energy=-1.731966D-03
 GradGradGradGradGradGradGradGradGradGradGradGradGradGradGradGradGradGrad

                          Input orientation:                          
 ---------------------------------------------------------------------
 Center     Atomic      Atomic             Coordinates (Angstroms)
 Number     Number       Type             X           Y           Z
 ---------------------------------------------------------------------
      1          6           0       -0.542746    2.068204   -0.071229
      2          8           0       -0.662014    0.809584   -0.070905
      3          8           0       -1.239930    2.870831   -0.845463
      4          1           0        0.154537    2.568562    0.598680
      5          1           0       -1.901488    2.389623   -1.465914
      6          6           0       -3.151471    0.311162   -2.306787
      7          8           0       -2.915202    1.534123   -2.299917
      8          8           0       -2.467968   -0.636436   -1.665047
      9          1           0       -3.985587   -0.110727   -2.866083
     10          1           0       -1.679803   -0.329564   -1.138661
     11          6           0        1.634036    0.290628    2.325266
     12          8           0        1.500482    1.514554    2.336166
     13          8           0        0.953338   -0.535023    1.477059
     14          1           0        2.317179   -0.270643    2.961564
     15          1           0        0.309251   -0.052315    0.845757
     16          6           0        1.732376   -2.851046   -0.775580
     17          8           0        2.137491   -1.778731   -1.282081
     18          8           0        1.337278   -2.999854    0.495161
     19          1           0        1.855342   -3.824791   -1.251156
     20          1           0        1.203008   -2.141663    0.998898
     21          6           0        4.502533    0.105460    1.091930
     22          8           0        3.830979   -0.215636    2.089133
     23          8           0        4.199259   -0.066890   -0.227815
     24          1           0        5.450136    0.646318    1.080039
     25          1           0        3.362902   -0.608345   -0.366934
 ---------------------------------------------------------------------
                    Distance matrix (angstroms):
[...]
                   16         17         18         19         20
    16  C    0.000000
    17  O    1.240734   0.000000
    18  O    1.334780   2.302530   0.000000
    19  H    1.091389   2.043095   2.004956   0.000000
    20  H    2.007075   2.534191   1.014659   2.910423   0.000000
    21  C    4.571914   3.531321   4.954025   5.541171   4.389524
    22  O    4.429946   3.643260   4.484520   5.478966   3.748609
    23  O    3.856025   2.663250   4.556554   4.695945   4.243206
    24  H    5.615212   4.519435   6.041498   6.551585   5.469573
    25  H    2.852475   1.665609   3.606572   3.705417   3.403355
                   21         22         23         24         25
    21  C    0.000000
    22  O    1.239037   0.000000
    23  O    1.341926   2.299559   0.000000
    24  H    1.092590   2.055856   2.005052   0.000000
    25  H    1.988017   2.497251   1.003816   2.890974   0.000000
 Stoichiometry    C5H10O10
 Framework group  C1[X(C5H10O10)]
 Deg. of freedom    69
 Full point group                 C1      NOp   1
 Largest Abelian subgroup         C1      NOp   1
 Largest concise Abelian subgroup C1      NOp   1
                         Standard orientation:                         
 ---------------------------------------------------------------------
 Center     Atomic      Atomic             Coordinates (Angstroms)
 Number     Number       Type             X           Y           Z
 ---------------------------------------------------------------------
      1          6           0       -1.749552   -1.301103   -0.313984
      2          8           0       -1.386741   -0.161299   -0.738441
      3          8           0       -2.879008   -1.527690    0.318352
      4          1           0       -1.131898   -2.177892   -0.477921
      5          1           0       -3.464961   -0.704177    0.494507
      6          6           0       -3.894052    1.787320    0.310894
      7          8           0       -4.260614    0.655188    0.692933
      8          8           0       -2.768604    2.059169   -0.345533
      9          1           0       -4.493926    2.677965    0.493173
     10          1           0       -2.188437    1.242418   -0.529039
     11          6           0        1.484775   -1.397186   -1.956982
     12          8           0        0.773750   -2.397101   -1.894031
     13          8           0        1.091365   -0.144371   -1.583047
     14          1           0        2.513297   -1.389303   -2.325102
     15          1           0        0.137457   -0.109529   -1.214274
     16          6           0        3.349605    2.039820   -0.092442
     17          8           0        3.243091    1.311847    0.906624
     18          8           0        2.728135    1.884071   -1.263405
     19          1           0        3.997363    2.918090   -0.105945
     20          1           0        2.096660    1.093847   -1.342886
     21          6           0        1.274811   -1.296270    2.245961
     22          8           0        0.545035   -1.110450    1.262034
     23          8           0        2.414703   -0.641706    2.516065
     24          1           0        1.064927   -2.034980    3.023142
     25          1           0        2.667096    0.066804    1.851267
 ---------------------------------------------------------------------
 Rotational constants (GHZ):      0.5543905      0.2691969      0.2577347

 **********************************************************************

            Population analysis using the SCF density.

 **********************************************************************

 Orbital symmetries:
       Occupied  (A) (A) (A) (A) (A) (A) (A) (A) (A) (A) (A) (A)
                 (A) (A) (A) (A) (A) (A) (A) (A) (A) (A) (A) (A)
                 (A) (A) (A) (A) (A) (A) (A) (A) (A) (A) (A) (A)
                 (A) (A) (A) (A) (A) (A) (A) (A) (A) (A) (A) (A)
                 (A) (A) (A) (A) (A) (A) (A) (A) (A) (A) (A) (A)
       Virtual   (A) (A) (A) (A) (A) (A) (A) (A) (A) (A) (A) (A)
                 (A) (A) (A) (A) (A) (A) (A) (A) (A) (A) (A) (A)
                 (A) (A) (A) (A) (A) (A) (A) (A) (A) (A) (A) (A)
                 (A) (A) (A) (A) (A) (A) (A) (A) (A) (A) (A) (A)
                 (A) (A) (A) (A) (A) (A) (A) (A) (A) (A) (A) (A)
                 (A) (A) (A) (A) (A) (A) (A) (A) (A) (A) (A) (A)
                 (A) (A) (A) (A) (A) (A) (A) (A) (A) (A) (A) (A)
                 (A) (A) (A) (A) (A) (A) (A) (A) (A) (A) (A)
 The electronic state is 1-A.
 Alpha  occ. eigenvalues --  -19.21819 -19.21577 -19.21361 -19.20147 -19.20004
 Alpha  occ. eigenvalues --  -19.19182 -19.18364 -19.17448 -19.17322 -19.15245
 Alpha  occ. eigenvalues --  -10.36837 -10.36675 -10.35234 -10.35218 -10.33099
 Alpha  occ. eigenvalues --   -1.15573  -1.14252  -1.13253  -1.12566  -1.10930
 Alpha  occ. eigenvalues --   -1.06909  -1.05531  -1.04967  -1.04267  -1.02537
 Alpha  occ. eigenvalues --   -0.71086  -0.68792  -0.68335  -0.67756  -0.66362
 Alpha  occ. eigenvalues --   -0.58908  -0.55771  -0.55371  -0.54565  -0.53159
 Alpha  occ. eigenvalues --   -0.52608  -0.50832  -0.49976  -0.49460  -0.48534
 Alpha  occ. eigenvalues --   -0.47369  -0.46255  -0.45968  -0.45935  -0.43962
 Alpha  occ. eigenvalues --   -0.43445  -0.42736  -0.39121  -0.38022  -0.36505
 Alpha  occ. eigenvalues --   -0.35771  -0.34637  -0.34126  -0.33917  -0.33598
 Alpha  occ. eigenvalues --   -0.32196  -0.31562  -0.30863  -0.30314  -0.28546
 Alpha virt. eigenvalues --   -0.04836  -0.04226  -0.03183  -0.02960  -0.01139
 Alpha virt. eigenvalues --    0.09209   0.10355   0.10452   0.12269   0.12736
 Alpha virt. eigenvalues --    0.13393   0.14107   0.16353   0.16781   0.20666
 Alpha virt. eigenvalues --    0.23595   0.24179   0.25151   0.25617   0.26489
 Alpha virt. eigenvalues --    0.27321   0.29523   0.30725   0.32208   0.35270
 Alpha virt. eigenvalues --    0.48224   0.48541   0.50061   0.50497   0.51507
 Alpha virt. eigenvalues --    0.52767   0.52948   0.55099   0.55943   0.57030
 Alpha virt. eigenvalues --    0.58617   0.61835   0.63819   0.65306   0.66544
 Alpha virt. eigenvalues --    0.69594   0.70126   0.71595   0.71917   0.73887
 Alpha virt. eigenvalues --    0.75997   0.77978   0.78146   0.79389   0.81399
 Alpha virt. eigenvalues --    0.83539   0.84108   0.85336   0.86153   0.87866
 Alpha virt. eigenvalues --    0.87980   0.88559   0.89450   0.91064   0.92152
 Alpha virt. eigenvalues --    0.94485   0.95493   0.97022   0.99242   1.00363
 Alpha virt. eigenvalues --    1.01172   1.03839   1.06245   1.07780   1.10099
 Alpha virt. eigenvalues --    1.12958   1.13803   1.14362   1.19323   1.20962
 Alpha virt. eigenvalues --    1.24949   1.27046   1.28461   1.29032   1.33291
 Alpha virt. eigenvalues --    1.34610   1.37578   1.43157   1.44520   1.50755
 Alpha virt. eigenvalues --    1.62821   1.66411   1.68191   1.69525   1.71184
 Alpha virt. eigenvalues --    1.76248   1.84475   1.89719   1.93242   1.97322
          Condensed to atoms (all electrons):
              1          2          3          4          5          6
     1  C    4.629266   0.289241   0.265691   0.365176  -0.017182   0.001481
     2  O    0.289241   8.343528  -0.083338  -0.059429   0.003682   0.001733
     3  O    0.265691  -0.083338   8.247610  -0.057870   0.190051   0.001858
     4  H    0.365176  -0.059429  -0.057870   0.493845   0.002643   0.000015
     5  H   -0.017182   0.003682   0.190051   0.002643   0.301055  -0.008211
     6  C    0.001481   0.001733   0.001858   0.000015  -0.008211   4.644085
     7  O    0.002274  -0.001161  -0.040298  -0.000053   0.091940   0.374428
     8  O    0.001203  -0.034601   0.000304  -0.000061  -0.000800   0.228229
     9  H    0.000016  -0.000074  -0.000086   0.000000   0.001060   0.379246
    10  H   -0.005633   0.078981  -0.000853   0.000784   0.002268  -0.017037
    11  C    0.001372   0.000996   0.000010  -0.000667   0.000000   0.000000
    12  O   -0.004402  -0.000674   0.000053   0.020697   0.000000   0.000000
    13  O    0.000769  -0.035975  -0.000019   0.000278   0.000003   0.000001
    14  H   -0.000008  -0.000078   0.000000   0.000242   0.000000   0.000000
    15  H   -0.003511   0.073921   0.000455  -0.000247  -0.000004  -0.000003
    16  C    0.000000   0.000000   0.000000   0.000000   0.000000   0.000000
    17  O    0.000000   0.000000   0.000000   0.000000   0.000000   0.000000
    18  O    0.000000  -0.000005   0.000000   0.000000   0.000000   0.000000
    19  H    0.000000   0.000000   0.000000   0.000000   0.000000   0.000000
    20  H    0.000011   0.000087   0.000000  -0.000007   0.000000   0.000000
    21  C    0.000359   0.000158  -0.000047   0.000174  -0.000001   0.000000
    22  O    0.009598  -0.002812  -0.000721   0.002403  -0.000049   0.000000
    23  O    0.000016  -0.000001   0.000000   0.000004   0.000000   0.000000
    24  H   -0.000063  -0.000002   0.000007  -0.000021   0.000000   0.000000
    25  H   -0.000002  -0.000002   0.000000  -0.000001   0.000000   0.000000
              7          8          9         10         11         12
     1  C    0.002274   0.001203   0.000016  -0.005633   0.001372  -0.004402
     2  O   -0.001161  -0.034601  -0.000074   0.078981   0.000996  -0.000674
     3  O   -0.040298   0.000304  -0.000086  -0.000853   0.000010   0.000053
     4  H   -0.000053  -0.000061   0.000000   0.000784  -0.000667   0.020697
     5  H    0.091940  -0.000800   0.001060   0.002268   0.000000   0.000000
     6  C    0.374428   0.228229   0.379246  -0.017037   0.000000   0.000000
     7  O    8.186708  -0.086190  -0.062588   0.003409   0.000000   0.000000
     8  O   -0.086190   8.303028  -0.079973   0.198175   0.000000   0.000000
     9  H   -0.062588  -0.079973   0.572845   0.003677   0.000000   0.000000
    10  H    0.003409   0.198175   0.003677   0.302165  -0.000014  -0.000001
    11  C    0.000000   0.000000   0.000000  -0.000014   4.638587   0.478547
    12  O    0.000000   0.000000   0.000000  -0.000001   0.478547   8.038618
    13  O    0.000000  -0.000004   0.000000   0.000023   0.117915  -0.085150
    14  H    0.000000   0.000000   0.000000   0.000000   0.365565  -0.056247
    15  H    0.000004  -0.000011   0.000000   0.000751  -0.010522   0.002947
    16  C    0.000000   0.000000   0.000000   0.000000   0.000270   0.000000
    17  O    0.000000   0.000000   0.000000   0.000000   0.000067   0.000000
    18  O    0.000000   0.000000   0.000000   0.000001  -0.000301  -0.000007
    19  H    0.000000   0.000000   0.000000   0.000000   0.000000   0.000000
    20  H    0.000000   0.000001   0.000000  -0.000005   0.001000   0.000239
    21  C    0.000000   0.000000   0.000000   0.000002   0.000334   0.000008
    22  O    0.000000   0.000000   0.000000   0.000008   0.003605  -0.000522
    23  O    0.000000   0.000000   0.000000   0.000000  -0.000031   0.000000
    24  H    0.000000   0.000000   0.000000   0.000000   0.000015  -0.000001
    25  H    0.000000   0.000000   0.000000   0.000000   0.000058  -0.000003
             13         14         15         16         17         18
     1  C    0.000769  -0.000008  -0.003511   0.000000   0.000000   0.000000
     2  O   -0.035975  -0.000078   0.073921   0.000000   0.000000  -0.000005
     3  O   -0.000019   0.000000   0.000455   0.000000   0.000000   0.000000
     4  H    0.000278   0.000242  -0.000247   0.000000   0.000000   0.000000
     5  H    0.000003   0.000000  -0.000004   0.000000   0.000000   0.000000
     6  C    0.000001   0.000000  -0.000003   0.000000   0.000000   0.000000
     7  O    0.000000   0.000000   0.000004   0.000000   0.000000   0.000000
     8  O   -0.000004   0.000000  -0.000011   0.000000   0.000000   0.000000
     9  H    0.000000   0.000000   0.000000   0.000000   0.000000   0.000000
    10  H    0.000023   0.000000   0.000751   0.000000   0.000000   0.000001
    11  C    0.117915   0.365565  -0.010522   0.000270   0.000067  -0.000301
    12  O   -0.085150  -0.056247   0.002947   0.000000   0.000000  -0.000007
    13  O    8.515058  -0.089832   0.188648   0.001839  -0.000343  -0.032571
    14  H   -0.089832   0.613066   0.003322   0.000101  -0.000019   0.000558
    15  H    0.188648   0.003322   0.265311   0.000095   0.000030   0.000508
    16  C    0.001839   0.000101   0.000095   4.628395   0.412162   0.212680
    17  O   -0.000343  -0.000019   0.000030   0.412162   8.148608  -0.088023
    18  O   -0.032571   0.000558   0.000508   0.212680  -0.088023   8.332834
    19  H   -0.000059   0.000002   0.000003   0.375564  -0.066602  -0.087166
    20  H    0.058050  -0.000264  -0.000128  -0.011680   0.004658   0.206474
    21  C    0.000237  -0.000006  -0.000104   0.000195   0.000410  -0.000014
    22  O   -0.000934  -0.000017   0.004072   0.000083  -0.000326  -0.000008
    23  O   -0.000004   0.000000  -0.000028   0.000584  -0.024619   0.000009
    24  H   -0.000003   0.000000   0.000020   0.000004  -0.000039   0.000000
    25  H    0.000198   0.000001   0.000036  -0.004515   0.069821  -0.000213
             19         20         21         22         23         24
     1  C    0.000000   0.000011   0.000359   0.009598   0.000016  -0.000063
     2  O    0.000000   0.000087   0.000158  -0.002812  -0.000001  -0.000002
     3  O    0.000000   0.000000  -0.000047  -0.000721   0.000000   0.000007
     4  H    0.000000  -0.000007   0.000174   0.002403   0.000004  -0.000021
     5  H    0.000000   0.000000  -0.000001  -0.000049   0.000000   0.000000
     6  C    0.000000   0.000000   0.000000   0.000000   0.000000   0.000000
     7  O    0.000000   0.000000   0.000000   0.000000   0.000000   0.000000
     8  O    0.000000   0.000001   0.000000   0.000000   0.000000   0.000000
     9  H    0.000000   0.000000   0.000000   0.000000   0.000000   0.000000
    10  H    0.000000  -0.000005   0.000002   0.000008   0.000000   0.000000
    11  C    0.000000   0.001000   0.000334   0.003605  -0.000031   0.000015
    12  O    0.000000   0.000239   0.000008  -0.000522   0.000000  -0.000001
    13  O   -0.000059   0.058050   0.000237  -0.000934  -0.000004  -0.000003
    14  H    0.000002  -0.000264  -0.000006  -0.000017   0.000000   0.000000
    15  H    0.000003  -0.000128  -0.000104   0.004072  -0.000028   0.000020
    16  C    0.375564  -0.011680   0.000195   0.000083   0.000584   0.000004
    17  O   -0.066602   0.004658   0.000410  -0.000326  -0.024619  -0.000039
    18  O   -0.087166   0.206474  -0.000014  -0.000008   0.000009   0.000000
    19  H    0.605327   0.004638   0.000002   0.000000  -0.000044   0.000000
    20  H    0.004638   0.289391   0.000072   0.000142  -0.000034   0.000001
    21  C    0.000002   0.000072   4.652617   0.433220   0.198060   0.364589
    22  O    0.000000   0.000142   0.433220   8.157012  -0.089616  -0.067687
    23  O   -0.000044  -0.000034   0.198060  -0.089616   8.352946  -0.092960
    24  H    0.000000   0.000001   0.364589  -0.067687  -0.092960   0.637827
    25  H    0.000618   0.000301  -0.011712   0.005157   0.199686   0.005234
             25
     1  C   -0.000002
     2  O   -0.000002
     3  O    0.000000
     4  H   -0.000001
     5  H    0.000000
     6  C    0.000000
     7  O    0.000000
     8  O    0.000000
     9  H    0.000000
    10  H    0.000000
    11  C    0.000058
    12  O   -0.000003
    13  O    0.000198
    14  H    0.000001
    15  H    0.000036
    16  C   -0.004515
    17  O    0.069821
    18  O   -0.000213
    19  H    0.000618
    20  H    0.000301
    21  C   -0.011712
    22  O    0.005157
    23  O    0.199686
    24  H    0.005234
    25  H    0.309319
 Mulliken atomic charges:
              1
     1  C    0.464326
     2  O   -0.574175
     3  O   -0.522807
     4  H    0.232096
     5  H    0.433544
     6  C    0.394177
     7  O   -0.468473
     8  O   -0.529299
     9  H    0.185878
    10  H    0.433299
    11  C    0.403193
    12  O   -0.394105
    13  O   -0.638127
    14  H    0.163616
    15  H    0.474434
    16  C    0.384225
    17  O   -0.455785
    18  O   -0.544756
    19  H    0.167717
    20  H    0.447052
    21  C    0.361447
    22  O   -0.452606
    23  O   -0.543968
    24  H    0.153079
    25  H    0.426017
 Sum of Mulliken atomic charges =   0.00000
 Mulliken charges with hydrogens summed into heavy atoms:
              1
     1  C    0.696422
     2  O   -0.574175
     3  O   -0.089262
     6  C    0.580054
     7  O   -0.468473
     8  O   -0.096000
    11  C    0.566808
    12  O   -0.394105
    13  O   -0.163693
    16  C    0.551941
    17  O   -0.455785
    18  O   -0.097704
    21  C    0.514525
    22  O   -0.452606
    23  O   -0.117951
 Sum of Mulliken charges with hydrogens summed into heavy atoms =   0.00000
 Electronic spatial extent (au):  <R**2>=           4655.8976
 Charge=              0.0000 electrons
 Dipole moment (field-independent basis, Debye):
    X=             -0.2917    Y=              1.8677    Z=             -0.9372  Tot=              2.1099
 Quadrupole moment (field-independent basis, Debye-Ang):
   XX=            -81.8469   YY=            -87.5690   ZZ=            -89.6793
   XY=             -5.4049   XZ=             -4.7904   YZ=              0.7862
 Traceless Quadrupole moment (field-independent basis, Debye-Ang):
   XX=              4.5181   YY=             -1.2039   ZZ=             -3.3142
   XY=             -5.4049   XZ=             -4.7904   YZ=              0.7862
 Octapole moment (field-independent basis, Debye-Ang**2):
  XXX=             13.1833  YYY=             28.9538  ZZZ=             -4.9074  XYY=              1.1613
  XXY=             48.4045  XXZ=            -39.6542  XZZ=            -14.8571  YZZ=            -10.4103
  YYZ=             28.1197  XYZ=             -2.3885
 Hexadecapole moment (field-independent basis, Debye-Ang**3):
 XXXX=          -3336.6479 YYYY=          -1234.1319 ZZZZ=          -1015.7207 XXXY=           -104.0070
 XXXZ=            -34.0063 YYYX=             10.9140 YYYZ=            -21.8263 ZZZX=            -51.7445
 ZZZY=            -16.6960 XXYY=           -626.0281 XXZZ=           -806.4656 YYZZ=           -391.9817
 XXYZ=             59.0148 YYXZ=              8.6072 ZZXY=            -28.7530
 N-N= 1.037914751878D+03 E-N=-4.306580049629D+03  KE= 9.431483120601D+02
 1\1\GINC-LSQC07\FOpt\RB3LYP\6-31G\C5H10O10\LITAO\11-May-2015\0\\#opt b
 3lyp/6-31g\\Title Card Required\\0,1\C,-0.2101101078,2.0019554064,0.26
 51010586\O,-0.6458938978,0.8138405809,0.1680256912\O,-0.571214701,2.98
 72106325,-0.5259336016\H,0.4902032035,2.2751278161,1.0474495753\H,-1.2
 205320749,2.7388512438,-1.2804209444\C,-2.6275229281,1.0312177771,-2.5
 17252194\O,-2.2216546628,2.2066034845,-2.3916251048\O,-2.3010781633,0.
 0082503039,-1.7308658635\H,-3.3101406319,0.7406180997,-3.3146915038\H,
 -1.6628032254,0.2532776808,-0.9759364324\C,1.2167245899,-0.2080858357,
 2.7649817629\O,1.1405636364,1.0030843183,2.9563371442\O,0.6471377039,-
 0.8611102965,1.7098648975\H,1.7430393947,-0.9076717097,3.4184378453\H,
 0.1577681566,-0.2390118978,1.0612817261\C,2.2474997638,-3.5812489268,0
 .2497512432\O,3.0304227217,-2.7420793825,-0.2216797701\O,1.1961100981,
 -3.3389565227,1.03557004\H,2.354893053,-4.650055744,0.0567501213\H,1.0
 123295464,-2.3677397649,1.2646892589\C,3.4193737557,0.7355893127,-0.69
 57708735\O,2.260400568,0.8186068209,-0.2655353113\O,4.1312116536,-0.39
 41768621,-0.8287348986\H,4.0059219802,1.5975575218,-1.0224601606\H,3.6
 512686674,-1.2342690568,-0.5612549061\\Version=EM64L-G09RevA.01\State=
 1-A\HF=-948.5295063\RMSD=8.440e-09\RMSF=1.638e-05\Dipole=-0.5856577,-0
 .5777597,-0.1108615\Quadrupole=-0.0838405,-2.4428908,2.5267313,-0.3857
 263,5.1220967,-2.3849344\PG=C01 [X(C5H10O10)]\\@


 A successful marriage requires falling in love
 many times, always with the same person.
                           -- Mignon McLaughlin
 Job cpu time:  0 days  1 hours 46 minutes  7.6 seconds.
 File lengths (MBytes):  RWF=     19 Int=      0 D2E=      0 Chk=      3 Scr=      1
 Normal termination of Gaussian 09 at Mon May 11 11:08:56 2015.
