25
  This energy is -0.00167837 and Call times are: 63
C	-1.40159	-1.00477	-1.09492
O	-0.66092	-0.36509	-0.296634
O	-1.9176	-2.18905	-0.839038
H	-1.6641	-0.597248	-2.0702
H	-1.6793	-2.5615	0.0880464
C	-0.658818	-2.37386	2.43327
O	-1.30092	-2.97258	1.54608
O	0.0205206	-1.2383	2.30645
H	-0.598976	-2.75973	3.45059
H	0.039306	-0.819153	1.39828
C	-0.270853	2.21094	-2.37654
O	-1.08183	1.49734	-2.9691
O	0.28498	1.90946	-1.17202
H	0.0966881	3.16808	-2.7518
H	-0.0410415	1.02036	-0.775378
C	2.62911	1.47176	1.06318
O	1.91401	0.463314	1.05653
O	2.43628	2.57112	0.302488
H	3.51256	1.5894	1.69438
H	1.63656	2.47799	-0.296151
C	6.38348	0.106938	-0.408135
O	7.39394	-0.574088	-0.478618
O	5.8815	0.459738	0.774685
H	5.88759	0.429181	-1.32299
H	6.41089	0.112343	1.48379
